# Wall shear stress
# Time        	patch         	min           	max           
2.000000e+03	bottom	(-3.500749e+00 -2.923546e-17 -1.447295e+00)	(8.701204e-01 2.784682e-17 3.542582e-01)
