# Probe 0 (0.01407 -0.21 0.011046)
# Probe 1 (0.22008 -0.21 0.07476)
# Probe 2 (0.28182 -0.21 0.04662)
# Probe 3 (0.525 -0.21 0.0011802)
#       Probe             0             1             2             3
#        Time
            1    0.00106626    0.00106623    0.00106625    0.00106627
            2    0.00106907    0.00106602    0.00106512     0.0010664
            3    0.00106914    0.00106596    0.00107099    0.00106653
            4    0.00107082    0.00106615    0.00120791    0.00106825
            5    0.00107709    0.00106606    0.00120991    0.00107197
            6    0.00108414    0.00106598    0.00204234    0.00107777
            7    0.00108312    0.00106594    0.00210269    0.00108688
            8     0.0010687    0.00106592     0.0022265    0.00110063
            9    0.00106564    0.00106591    0.00283108    0.00112598
           10    0.00102883    0.00106589    0.00225786    0.00117279
           11    0.00106088    0.00106588    0.00327884    0.00126538
           12    0.00105433    0.00106589    0.00468171    0.00143959
           13    0.00104749    0.00106595    0.00822749    0.00171687
           14    0.00106214    0.00106604    0.00984083     0.0020057
           15     0.0010712    0.00106615     0.0120429     0.0023144
           16    0.00106949    0.00106626     0.0298231    0.00263572
           17    0.00106778    0.00106636     0.0377359    0.00297558
           18    0.00106696    0.00106644     0.0531159    0.00339367
           19    0.00106593     0.0010665     0.0896459    0.00398849
           20     0.0010661    0.00106655     0.0728018    0.00471097
           21    0.00106625    0.00106658     0.0238335    0.00527883
           22    0.00106565    0.00106661     0.0164413    0.00566442
           23    0.00106677    0.00106664      0.027693    0.00588586
           24    0.00106599    0.00106667     0.0421081    0.00600421
           25    0.00106617    0.00106672      0.080638    0.00607868
           26    0.00106635    0.00106683      0.166487    0.00614437
           27    0.00106839    0.00106708      0.343159    0.00622859
           28    0.00107119    0.00106761      0.384271    0.00634733
           29    0.00107834    0.00106875      0.288036    0.00651802
           30    0.00109535    0.00107124      0.215975    0.00675255
           31    0.00113886    0.00107682      0.159927    0.00704302
           32    0.00125077    0.00108918      0.166115    0.00734839
           33     0.0015495     0.0011155       0.21821    0.00763358
           34    0.00226278    0.00116746      0.281835    0.00787778
           35    0.00386183    0.00126215      0.368644    0.00804526
           36    0.00721225    0.00142532      0.489541    0.00811431
           37     0.0140202    0.00169325      0.619969     0.0080658
           38     0.0267857    0.00210909      0.669849    0.00787682
           39     0.0505239    0.00269593      0.639443    0.00755049
           40     0.0924681    0.00350191      0.579343    0.00712275
           41      0.166365     0.0046229      0.527828    0.00662864
           42      0.291386    0.00624718      0.542234      0.006098
           43      0.497843    0.00873629      0.597641    0.00556125
           44      0.806401     0.0126935      0.784604    0.00504995
           45       1.23536     0.0190992       1.30455    0.00459327
           46       1.78035      0.029461        1.9227    0.00420835
           47       2.43693     0.0460845       1.49568    0.00390955
           48       3.18284     0.0724322       1.19835    0.00370175
           49       4.05436      0.113535       1.08858    0.00359833
           50        5.0617      0.175782        1.1591    0.00361878
           51       6.18488      0.265729       1.24867    0.00379926
           52       7.30163      0.386064       1.36086    0.00392995
           53       8.18267      0.525247       1.38457    0.00394655
           54       8.62627      0.658007       1.34349    0.00402319
           55        8.6021       0.74198       1.26622    0.00419802
           56       8.31809      0.729234       1.17202    0.00441742
           57       7.83625      0.579539       1.07543    0.00466898
           58       7.35908      0.319003        1.0063    0.00493431
           59       6.93653     0.0386937      0.969111    0.00522976
           60       6.46472    0.00645189      0.980139    0.00555786
           61       6.19382   2.22045e-16       1.08819    0.00591283
           62       5.47566   8.22484e-05       1.32333    0.00627825
           63       4.26378   0.000530295        1.7297    0.00665291
           64       2.95697   0.000983174       2.36477    0.00702585
           65       2.15162    0.00121033       3.26966    0.00736705
           66       2.03537    0.00116984       4.36786    0.00765823
           67       2.36303    0.00110157       6.11224    0.00790775
           68       2.87703    0.00106224       6.79249    0.00812116
           69       3.36885    0.00105498       4.10876    0.00830937
           70       3.77572    0.00106357       2.30549     0.0084781
           71       4.09942    0.00107183       1.45735    0.00862377
           72       4.35143    0.00107324       1.22569    0.00872988
           73       4.53616    0.00107194       1.11462    0.00879378
           74       4.66036    0.00107071       1.12406    0.00881554
           75       4.73157    0.00107037       1.27257    0.00881138
           76       4.75965    0.00107053       1.52224    0.00878944
           77       4.75449    0.00107069       1.85608    0.00875323
           78       4.72495    0.00107071       2.32588    0.00873469
           79       4.67778    0.00107063       2.95774    0.00871026
           80       4.61655    0.00107055       3.72209    0.00866684
           81        4.5422     0.0010705        4.4403    0.00861163
           82       4.45361    0.00107047       4.71822    0.00854564
           83       4.35095    0.00107046       4.69055    0.00846375
           84       4.23744    0.00107044       4.55655    0.00835503
           85       4.12029    0.00107043       4.36811    0.00821923
           86       4.00808    0.00107042       4.14886    0.00804591
           87       3.90941    0.00107043       3.91474    0.00783451
           88       3.83011    0.00107045       3.66989    0.00757256
           89       3.77308    0.00107048       3.41295    0.00721483
           90       3.73781    0.00107052       3.14218    0.00676458
           91       3.72012    0.00107057       2.91277    0.00629607
           92       3.72061    0.00107065       2.76044    0.00588048
           93       3.73605    0.00107073       2.71135     0.0055111
           94       3.76394    0.00107084       2.77635     0.0050598
           95       3.80235    0.00107097       2.88139    0.00477623
           96       3.84961    0.00107112       3.02723    0.00459688
           97       3.90414    0.00107128       3.20075    0.00445345
           98       3.96493    0.00107148       3.41418     0.0043248
           99       4.03113    0.00107169        3.7072    0.00420146
          100       4.10227    0.00107192       4.19123    0.00409246
          101        4.1778    0.00107218       4.89869    0.00401167
          102       4.25672    0.00107245       4.81731    0.00397622
          103       4.33824    0.00107274       3.87287    0.00399189
          104       4.42124    0.00107303       3.44617    0.00405445
          105       4.50506    0.00107333       3.25024    0.00415807
          106       4.58963    0.00107363       3.25265    0.00430481
          107       4.67497    0.00107391       3.31875    0.00450222
          108       4.76083    0.00107419        3.3749    0.00476198
          109       4.84644    0.00107445       3.40362     0.0050964
          110       4.93062     0.0010747       3.40033    0.00551846
          111       5.01259    0.00107494       3.37365    0.00604237
          112       5.09331    0.00107516       3.33328    0.00666475
          113         5.173    0.00107537       3.28377    0.00740734
          114       5.25248    0.00107558       3.22757    0.00826247
          115       5.33086    0.00107578       3.16618    0.00919588
          116       5.40763    0.00107597       3.10116     0.0102405
          117       5.48202    0.00107617       3.03351     0.0113841
          118       5.55434    0.00107638       2.96411     0.0125997
          119       5.62667    0.00107659        2.8933     0.0138357
          120       5.69672    0.00107681       2.82238     0.0150227
          121       5.76541    0.00107705       2.75254     0.0161764
          122       5.83189     0.0010773       2.68645      0.017604
          123       5.89418    0.00107758       2.62372     0.0200853
          124       5.95178    0.00107787       2.56423     0.0279354
          125       6.00505    0.00107819        2.5076     0.0541281
          126       6.05552    0.00107854       2.45361      0.161943
          127       6.10642    0.00107893       2.40224      0.532936
          128       6.15802    0.00107936       2.35397       1.26179
          129       6.20943    0.00107984       2.30954       1.26841
          130       6.25839    0.00108039        2.2691       1.19946
          131       6.30371    0.00108101       2.23266       1.12716
          132       6.34528    0.00108172       2.20061       1.00968
          133       6.38372    0.00108256       2.17287      0.987924
          134       6.42052    0.00108355       2.14863       1.08663
          135       6.45626    0.00108474       2.12716       1.22057
          136       6.49084     0.0010862       2.10784       1.30581
          137       6.52406    0.00108802       2.09023       1.31961
          138       6.55565    0.00109031       2.07405       1.27978
          139        6.5856    0.00109324       2.05894       1.21315
          140       6.61379    0.00109704       2.04449       1.16876
          141        6.6402    0.00110203       2.03054       1.16327
          142         6.665    0.00110865       2.01685        1.1615
          143       6.68841    0.00111749       2.00317        1.1194
          144       6.71055    0.00112937       1.98943       1.04408
          145       6.73142    0.00114537       1.97556      0.959597
          146       6.75103    0.00116696       1.96153      0.880391
          147        6.7694    0.00119608       1.94727      0.816315
          148        6.7866    0.00123527       1.93282      0.774895
          149       6.80268     0.0012878       1.91831      0.756965
          150       6.81772     0.0013579       1.90389      0.762878
          151       6.83176     0.0014509       1.88977      0.781727
          152       6.84485    0.00157348       1.87592      0.806429
          153       6.85706    0.00173392       1.86232      0.839384
          154       6.86844     0.0019424       1.84894      0.879063
          155         6.879    0.00221128       1.83583      0.923805
          156       6.88876    0.00255537       1.82297      0.972823
          157       6.89774    0.00299209       1.81038        1.0256
          158       6.90595     0.0035415       1.79809       1.08157
          159       6.91339    0.00422685       1.78616       1.14022
          160       6.92008    0.00507499       1.77468       1.20112
          161       6.92604    0.00611516       1.76369       1.26386
          162       6.93127    0.00737865       1.75331       1.32817
          163        6.9358    0.00889896       1.74364       1.39387
          164        6.9396     0.0107106       1.73477       1.46087
          165       6.94268     0.0128489       1.72689       1.52918
          166       6.94504     0.0153488       1.72021       1.59887
          167        6.9467     0.0182442       1.71492       1.67002
          168       6.94763     0.0215672       1.71123       1.74277
          169       6.94784     0.0253486       1.70923       1.81722
          170       6.94734     0.0296166       1.70901       1.89349
          171       6.94613     0.0343978       1.71062       1.97164
          172       6.94422     0.0397147       1.71399       2.05172
          173       6.94164     0.0455896       1.71902       2.13375
          174       6.93844       0.05204       1.72558       2.21769
          175       6.93462     0.0590805       1.73352       2.30348
          176       6.93021     0.0667228       1.74264       2.39106
          177       6.92524     0.0749722       1.75262       2.48027
          178       6.91973       0.08383       1.76302       2.57097
          179        6.9137     0.0932882       1.77323       2.66295
          180       6.90716      0.103331       1.78308       2.75593
          181       6.90013      0.113939       1.79237       2.84967
          182       6.89265      0.125093       1.80092       2.94396
          183       6.88472      0.136776        1.8086       3.03863
          184       6.87634      0.148985       1.81541       3.13358
          185       6.86754      0.161715       1.82129       3.22878
          186        6.8583      0.174964       1.82627        3.3241
          187       6.84864      0.188715       1.83038       3.41935
          188       6.83862      0.202951       1.83369       3.51437
          189       6.82826      0.217657       1.83623       3.60896
          190       6.81758       0.23282        1.8381       3.70299
          191       6.80659      0.248424       1.83933        3.7963
          192       6.79532      0.264454       1.84001       3.88876
          193       6.78378      0.280889       1.84022       3.98021
          194       6.77199      0.297705       1.84004       4.07048
          195       6.75997      0.314876       1.83957       4.15945
          196       6.74775       0.33237       1.83889       4.24697
          197       6.73534      0.350155       1.83804       4.33295
          198       6.72278      0.368204       1.83708       4.41733
          199       6.71006      0.386489       1.83615       4.50011
          200       6.69721      0.404991       1.83536       4.58133
          201       6.68422      0.423688       1.83473       4.66108
          202       6.67115      0.442554        1.8343       4.73945
          203       6.65798      0.461563       1.83406       4.81658
          204       6.64474      0.480694       1.83403       4.89265
          205       6.63144      0.499926       1.83423        4.9678
          206        6.6181      0.519235        1.8347       5.04222
          207       6.60474        0.5386       1.83547       5.11605
          208        6.5914      0.557996       1.83656       5.18943
          209       6.57808      0.577402       1.83797       5.26246
          210       6.56482      0.596799       1.83973       5.33524
          211       6.55161      0.616162       1.84185       5.40779
          212       6.53848      0.635477       1.84437       5.48016
          213       6.52544      0.654721       1.84732       5.55231
          214        6.5125      0.673879       1.85073       5.62421
          215       6.49967      0.692933       1.85466        5.6958
          216       6.48696      0.711868        1.8591       5.76701
          217       6.47438      0.730669       1.86409       5.83774
          218       6.46194      0.749324       1.86965       5.90792
          219       6.44966       0.76782       1.87582       5.97746
          220       6.43754      0.786146       1.88264       6.04628
          221       6.42557      0.804294       1.89006       6.11431
          222       6.41379      0.822253       1.89821       6.18151
          223       6.40218      0.840016       1.90715        6.2478
          224       6.39073      0.857575       1.91688       6.31317
          225       6.37945      0.874925       1.92747       6.37757
          226       6.36836      0.892059       1.93887       6.44101
          227       6.35744      0.908975       1.95106       6.50346
          228       6.34671      0.925668       1.96398       6.56493
          229       6.33616      0.942135       1.97761       6.62543
          230       6.32579      0.958373       1.99085       6.68497
          231        6.3156      0.974382       2.00394       6.74357
          232        6.3056       0.99016       2.01706       6.80123
          233       6.29577       1.00571       2.03034       6.85798
          234       6.28612       1.02102       2.04386       6.91383
          235       6.27664       1.03611        2.0577        6.9688
          236       6.26734       1.05096       2.07195       7.02291
          237        6.2582       1.06558       2.08672       7.07616
          238       6.24924       1.07998       2.10211       7.12858
          239       6.24044       1.09415       2.11826       7.18016
          240       6.23181        1.1081        2.1353       7.23093
          241       6.22334       1.12183       2.15335       7.28089
          242       6.21504       1.13534       2.17252       7.33006
          243        6.2069       1.14864       2.19305       7.37843
          244       6.19892       1.16172       2.21513       7.42602
          245        6.1911        1.1746       2.23886       7.47283
          246       6.18343       1.18727       2.26424       7.51887
          247       6.17591       1.19973       2.29128       7.56415
          248       6.16856         1.212       2.31992       7.60867
          249       6.16135       1.22406       2.35013       7.65243
          250        6.1543       1.23593       2.38165       7.69544
          251       6.14739       1.24761       2.41457        7.7377
          252       6.14064       1.25909       2.44934       7.77922
          253       6.13403       1.27039       2.48581       7.81999
          254       6.12757       1.28149       2.52354       7.86004
          255       6.12125       1.29241       2.56251       7.89935
          256       6.11508       1.30314       2.60275       7.93794
          257       6.10905       1.31369       2.64421       7.97583
          258       6.10315       1.32406       2.68687       8.01301
          259        6.0974       1.33424        2.7306       8.04949
          260       6.09178       1.34424       2.77523        8.0853
          261        6.0863       1.35405       2.82063       8.12044
          262       6.08095       1.36369       2.86667       8.15493
          263       6.07574       1.37315       2.91322       8.18878
          264       6.07065       1.38243       2.96028       8.22201
          265       6.06569       1.39154        3.0078       8.25465
          266       6.06085       1.40047       3.05573        8.2867
          267       6.05613       1.40922       3.10399       8.31819
          268       6.05154        1.4178       3.15262       8.34914
          269       6.04705       1.42621       3.20266       8.37958
          270       6.04267       1.43444       3.25324       8.40951
          271        6.0384       1.44251       3.30393       8.43897
          272       6.03422       1.45041        3.3548       8.46798
          273       6.03016       1.45814       3.40579       8.49656
          274       6.02619       1.46571       3.45698       8.52473
          275       6.02231       1.47312       3.50851       8.55251
          276       6.01851       1.48037       3.56029       8.57992
          277       6.01481       1.48746       3.61228       8.60699
          278       6.01119       1.49439        3.6644       8.63372
          279       6.00764       1.50117       3.71659       8.66014
          280       6.00417        1.5078       3.76847       8.68627
          281       6.00078       1.51428       3.81887       8.71212
          282       5.99745       1.52061        3.8692       8.73771
          283       5.99419        1.5268       3.91956       8.76305
          284         5.991       1.53284       3.96995       8.78816
          285       5.98787       1.53875       4.02045       8.81304
          286       5.98479       1.54452       4.07154       8.83771
          287       5.98178       1.55016       4.12283       8.86217
          288       5.97882       1.55567       4.17384       8.88644
          289       5.97592       1.56104       4.22405       8.91052
          290       5.97307       1.56629       4.27323       8.93441
          291       5.97028       1.57142       4.32132       8.95812
          292       5.96754       1.57642       4.36845       8.98167
          293       5.96486       1.58131       4.41467       9.00504
          294       5.96223       1.58608       4.45978       9.02825
          295       5.95965       1.59073       4.50394        9.0513
          296       5.95713       1.59528       4.54717       9.07419
          297       5.95466       1.59972       4.58948       9.09692
          298       5.95225       1.60405       4.63158       9.11949
          299        5.9499       1.60828       4.67328       9.14192
          300        5.9476       1.61241       4.71453       9.16419
          301       5.94537       1.61644       4.75528       9.18631
          302        5.9432       1.62038        4.7954       9.20828
          303        5.9411       1.62423       4.83485        9.2301
          304       5.93906         1.628       4.87363       9.25177
          305       5.93709       1.63167       4.91169       9.27328
          306        5.9352       1.63527         4.949       9.29462
          307       5.93338       1.63878       4.98551       9.31579
          308       5.93163        1.6422        5.0211       9.33675
          309       5.92997       1.64555       5.05571       9.35749
          310       5.92838        1.6488       5.08931       9.37798
          311       5.92688       1.65198       5.12184       9.39819
          312       5.92546       1.65507       5.15303       9.41809
          313       5.92413       1.65807       5.18259       9.43766
          314       5.92288       1.66099       5.21078       9.45689
          315       5.92171       1.66383       5.23775       9.47577
          316       5.92062        1.6666       5.26356       9.49428
          317        5.9196       1.66929       5.28826       9.51241
          318       5.91867       1.67191       5.31189       9.53017
          319        5.9178       1.67446       5.33446       9.54753
          320       5.91701       1.67694       5.35597        9.5645
          321       5.91629       1.67937       5.37641       9.58107
          322       5.91564       1.68173       5.39576       9.59723
          323       5.91505       1.68404       5.41398       9.61296
          324       5.91453        1.6863       5.43106       9.62825
          325       5.91406        1.6885       5.44699        9.6431
          326       5.91366       1.69066       5.46184        9.6575
          327       5.91331       1.69276        5.4756       9.67142
          328       5.91302       1.69483       5.48825       9.68484
          329       5.91278       1.69685       5.49977       9.69777
          330        5.9126       1.69883       5.51011       9.71018
          331       5.91246       1.70078       5.51926       9.72205
          332       5.91237       1.70268       5.52719       9.73337
          333       5.91233       1.70456       5.53389       9.74412
          334       5.91232        1.7064       5.53933       9.75429
          335       5.91237       1.70821       5.54351       9.76385
          336       5.91245       1.70999       5.54644        9.7728
          337       5.91257       1.71175       5.54811        9.7811
          338       5.91273       1.71348       5.54852       9.78875
          339       5.91292       1.71519       5.54769       9.79573
          340       5.91315       1.71688       5.54563       9.80202
          341       5.91341       1.71855       5.54235       9.80761
          342        5.9137       1.72021       5.53786       9.81248
          343       5.91402       1.72184       5.53218       9.81662
          344       5.91437       1.72347       5.52532          9.82
          345       5.91475       1.72508       5.51731       9.82263
          346       5.91515       1.72668       5.50815       9.82449
          347       5.91558       1.72828       5.49786       9.82556
          348       5.91603       1.72987       5.48646       9.82585
          349        5.9165       1.73145       5.47395       9.82533
          350         5.917       1.73303       5.46038       9.82401
          351       5.91751       1.73461       5.44574       9.82187
          352       5.91804       1.73618       5.43006       9.81892
          353       5.91859       1.73776       5.41332       9.81515
          354       5.91916       1.73934       5.39553       9.81056
          355       5.91974       1.74093       5.37674       9.80516
          356       5.92034       1.74251       5.35699       9.79895
          357       5.92095        1.7441       5.33633       9.79192
          358       5.92157        1.7457       5.31484        9.7841
          359        5.9222       1.74731       5.29256        9.7755
          360       5.92284       1.74892       5.26953       9.76611
          361        5.9235       1.75054       5.24581       9.75597
          362       5.92416       1.75217       5.22142       9.74509
          363       5.92483        1.7538       5.19644       9.73349
          364        5.9255       1.75544       5.17096       9.72121
          365       5.92619        1.7571       5.14507       9.70828
          366       5.92688       1.75876       5.11883       9.69472
          367       5.92757       1.76042       5.09234       9.68059
          368       5.92828        1.7621       5.06569       9.66591
          369       5.92898       1.76378       5.03897       9.65075
          370       5.92969       1.76546       5.01213       9.63515
          371       5.93041       1.76715       4.98494       9.61916
          372       5.93113       1.76884        4.9577       9.60287
          373       5.93186       1.77053       4.93059       9.58631
          374       5.93259       1.77222       4.90381       9.56956
          375       5.93332        1.7739       4.87749       9.55268
          376       5.93405       1.77557       4.85177       9.53574
          377       5.93479       1.77724       4.82681       9.51881
          378       5.93553       1.77888       4.80323       9.50198
          379       5.93627       1.78051       4.78088       9.48535
          380       5.93701       1.78211       4.75983         9.469
          381       5.93775       1.78369       4.74035       9.45306
          382       5.93849       1.78523       4.72239       9.43758
          383       5.93922       1.78673       4.70612       9.42263
          384       5.93993       1.78819       4.69169       9.40845
          385       5.94066        1.7896       4.67924       9.39518
          386       5.94138       1.79096       4.66889       9.38274
          387       5.94209       1.79225       4.66089       9.37123
          388        5.9428       1.79348       4.65539       9.36077
          389       5.94351       1.79464       4.65243       9.35135
          390       5.94421       1.79573       4.65199         9.343
          391       5.94492       1.79674       4.65392       9.33577
          392       5.94563       1.79766       4.65842       9.32981
          393       5.94634        1.7985       4.66564       9.32533
          394       5.94704       1.79925       4.67461        9.3223
          395       5.94773       1.79991       4.68519       9.32076
          396       5.94842       1.80048       4.69668        9.3208
          397       5.94911       1.80097       4.70857       9.32239
          398       5.94979       1.80138       4.72039       9.32546
          399       5.95047       1.80171       4.73174       9.33002
          400       5.95114       1.80196       4.74225       9.33609
          401        5.9518       1.80215       4.75158       9.34379
          402       5.95246       1.80228       4.75944       9.35322
          403       5.95311       1.80236       4.76565       9.36452
          404       5.95377        1.8024       4.77008       9.37779
          405       5.95441       1.80239       4.77266       9.39304
          406       5.95505       1.80235       4.77338       9.41033
          407       5.95568       1.80229       4.77224       9.42969
          408       5.95629       1.80221       4.76929       9.45116
          409        5.9569       1.80211       4.76471       9.47474
          410       5.95749       1.80201       4.75874       9.50041
          411       5.95807       1.80191       4.75166       9.52814
          412       5.95864        1.8018       4.74381       9.55787
          413       5.95921       1.80171       4.73557       9.58955
          414       5.95976       1.80162       4.72734        9.6231
          415        5.9603       1.80154        4.7195       9.65843
          416       5.96084       1.80146       4.71236       9.69545
          417       5.96136        1.8014       4.70619       9.73408
          418       5.96188       1.80134       4.70127       9.77421
          419       5.96239       1.80128        4.6979       9.81574
          420       5.96289       1.80122       4.69616       9.85858
          421       5.96338       1.80116        4.6961       9.90265
          422       5.96386       1.80109       4.69775       9.94788
          423       5.96434       1.80101       4.70109       9.99418
          424       5.96481       1.80091       4.70605       10.0415
          425       5.96528        1.8008       4.71258       10.0897