# Probe 0 (0.01407 -0.21 0.011046)
# Probe 1 (0.22008 -0.21 0.07476)
# Probe 2 (0.28182 -0.21 0.04662)
# Probe 3 (0.525 -0.21 0.0011802)
#       Probe             0             1             2             3
#        Time
            1      0.120079      0.119724      0.583496       3.33762
            2      0.178458         0.122         248.7       4.14474
            3      0.486586      0.125524        540.06       5.47108
            4       5.83276      0.128323        4407.7       8.02306
            5       26.1713      0.130648       3652.01       12.7583
            6       55.5276      0.131891       11510.8       20.4136
            7       62.5682       0.13226       16817.9       34.0065
            8       20.7798      0.132252       13169.4       60.5514
            9       1.98553      0.132621       19052.8       110.316
           10           0.1      0.134443         12997       204.625
           11      0.433451      0.138291       19049.8       392.889
           12      0.752116      0.143954       18539.4       766.683
           13      0.824998      0.150455       30807.6       1460.87
           14       0.58476      0.156465       38814.1       2486.63
           15      0.653377      0.160951       30954.2       3473.87
           16      0.760458      0.163287         37494       4445.18
           17      0.790435      0.163469       27992.8       5405.28
           18      0.758929      0.162287       25605.3       6235.23
           19      0.738713       0.16097       27775.9       6682.09
           20      0.745194      0.160382       24763.4       6816.99
           21      0.778176      0.161379       19094.2       6699.13
           22      0.818361      0.165219         18881          6412
           23      0.855193      0.174135         20454       6039.62
           24      0.885929      0.191829       22207.1       5646.53
           25      0.919004      0.224613       27003.9       5280.13
           26      0.967553      0.283744       34100.1        4944.3
           27       1.05374      0.391509       42676.1       4649.18
           28       1.20581      0.591287       34750.4       4386.55
           29       1.47745      0.971104       24771.7       4152.58
           30       1.97546       1.70918       17055.4        3946.6
           31       2.93728       3.15192       11869.9       3765.31
           32       4.89907       5.93867       10590.9       3606.92
           33       9.10779       11.1526       12220.9        3466.9
           34       17.7229        20.489       14556.5       3340.76
           35       34.6816       36.2817       16798.6        3216.7
           36       66.3312       61.5779       19225.2       3088.62
           37       125.258       100.414         21177       2960.26
           38       227.018       158.335       21410.8       2831.97
           39       403.432       242.051       20481.7       2704.13
           40       697.303       358.325         19543       2577.78
           41       1152.33       513.806       19325.4       2448.66
           42       1801.78       712.306       21472.8       2325.39
           43          2639       954.158       26113.9        2223.3
           44       3661.67       1233.15       34896.4       2154.27
           45       4918.37       1538.82       47727.7       2130.25
           46       6268.82       1858.46       50353.5       2169.92
           47       7575.64       2179.43       29470.7       2304.11
           48        8737.7       2491.61       13408.2       2516.88
           49        9559.6       2788.06       9565.09       2744.64
           50       9964.77       3063.89       9252.44       2990.23
           51       10014.1       3313.01       9341.61       3292.87
           52       9789.35        3520.6         10010       3424.59
           53       9402.22       3657.67       10610.4       3322.74
           54       8952.01       3677.19         10877       3190.44
           55       8536.32       3526.79       10850.7       3106.43
           56       8231.24       3164.17       10543.9       3040.59
           57       8083.66       2589.23       10015.4       2982.36
           58        8041.3        1860.2        9438.3       2927.18
           59       8032.07       1101.12       9030.65       2881.06
           60       7879.49       455.495       9160.52       2844.21
           61       7720.35       34.0094       10284.9       2817.43
           62       7365.86       1.43865         12537        2790.7
           63       6843.14      0.162334       15695.6       2765.19
           64       6271.12      0.900121       19346.8       2740.46
           65       5857.32       1.84463       23239.6       2713.73
           66       5693.85       2.38275       27553.7       2685.26
           67       5720.55       2.41444       35671.6       2655.14
           68        5833.2       2.15084       37495.2       2626.38
           69       5862.44       1.85302       25272.9       2599.92
           70       5780.64       1.65455       16887.4       2576.76
           71       5682.94       1.55607       11001.1        2557.2
           72       5551.07        1.5071       7995.86       2540.74
           73       5412.24       1.46701       7489.59       2527.41
           74       5289.59       1.42081       7520.74       2516.95
           75       5190.48       1.37011       8042.59       2510.69
           76       5112.51       1.32102       8780.03       2508.66
           77       5052.85       1.27755       9563.93       2509.47
           78       5006.86       1.24053       10732.2       2516.98
           79       4970.79       1.20893       12852.1       2528.07
           80        4941.1       1.18115       16002.8        2539.3
           81        4914.4       1.15599       18631.9       2550.95
           82       4887.25       1.13288       18556.9       2563.26
           83       4856.29       1.11187       17081.6        2575.4
           84       4820.34       1.09332       15306.4        2585.1
           85       4777.28        1.0777       13512.8       2591.67
           86       4727.73       1.06553       11783.1       2594.34
           87       4672.53       1.05727         10186       2593.05
           88       4614.25       1.05338       8789.22       2590.18
           89       4556.11       1.05426        7639.1       2582.68
           90       4501.43       1.06023       6753.37       2565.65
           91       4449.91       1.07164       6154.44       2542.05
           92       4403.55       1.08913       5901.61       2508.36
           93       4364.89       1.11326       6068.28       2462.83
           94       4332.65       1.14443       6762.31       2427.19
           95       4307.29       1.18305       8007.96       2414.77
           96       4287.57       1.22924       9502.41       2425.87
           97       4273.11       1.28297       11072.9       2433.25
           98       4263.59       1.34433       12869.8       2424.27
           99        4257.8       1.41291       15351.2       2409.18
          100       4255.87        1.4882       19392.6       2393.36
          101        4258.1       1.56293       24272.1       2377.55
          102       4263.48       1.64725       24057.3       2363.53
          103       4271.34       1.73356       17946.2        2353.6
          104       4281.24       1.81975       13057.6       2348.58
          105        4292.4       1.90283       9977.03       2347.27
          106        4304.3        1.9801       8680.69       2348.53
          107        4316.5       2.04976        7951.9       2351.77
          108       4328.61       2.11083       7426.14       2356.96
          109       4340.32        2.1632       7013.04       2364.04
          110       4351.41       2.20746       6682.37       2372.97
          111       4361.66       2.24466       6430.44       2383.93
          112       4370.95       2.27611       6235.89       2395.98
          113       4379.35       2.30343       6080.83       2413.39
          114          4387       2.32806       5949.74       2434.39
          115       4394.19        2.3517       5831.67          2451
          116       4400.74       2.37562       5717.61        2467.9
          117       4406.46       2.40087       5603.03       2487.46
          118       4411.43       2.42831       5483.75       2510.16
          119       4415.86       2.45875       5356.16       2536.63
          120       4419.82       2.49291       5220.19        2571.7
          121       4423.29       2.53156       5079.91       2626.12
          122       4426.32       2.57534        4942.3       2724.08
          123       4428.91       2.62491        4809.5       2947.11
          124       4431.19         2.681       4684.03       3587.27
          125       4433.16       2.74419       4568.35        5579.4
          126       4434.75        2.8151       4463.81       11888.4
          127       4435.96       2.89438       4370.36       26413.1
          128       4436.84       2.98293       4288.04       39827.5
          129       4437.46       3.08164        4217.6       28316.2
          130       4437.92       3.19163       4157.82       18586.5
          131        4438.2       3.31417       4106.93       14152.6
          132       4438.27       3.45057       4063.96       11840.4
          133        4438.1       3.60228        4027.4       10579.9
          134        4437.7       3.77102       3994.79       10192.7
          135       4437.07       3.95796       3964.22       10022.7
          136       4436.21       4.16429       3934.26       9581.92
          137       4435.17       4.39087       3904.31       8772.78
          138       4433.98       4.63842       3874.35       7821.84
          139        4432.7       4.90732       3844.66       6994.39
          140       4431.35       5.19838       3815.57       6540.47
          141       4429.95       5.51405       3787.92       6428.87
          142       4428.61       5.85986       3762.22       6430.17
          143       4427.35       6.24454       3738.74       6314.52
          144       4426.14       6.68029       3717.79       6032.06
          145       4424.98       7.18391       3699.82       5747.95
          146       4423.87       7.77694       3684.86       5436.72
          147       4422.81       8.48704       3672.73       5038.05
          148       4421.81       9.34804       3663.18       4599.75
          149       4420.88       10.4002        3656.1       4217.43
          150       4420.06       11.6895       3651.71       3934.05
          151        4419.3        13.266       3650.48       3749.79
          152       4418.53       15.1819       3652.23       3635.58
          153       4417.76       17.4894       3656.41       3564.09
          154          4417       20.2391        3662.5        3516.9
          155       4416.27       23.4768       3670.09       3483.83
          156       4415.59       27.2417       3678.92       3459.74
          157       4414.93       31.5676       3688.77       3442.02
          158       4414.27        36.477       3699.14       3429.16
          159       4413.59       41.9788       3709.91       3420.15
          160       4412.88       48.0969       3721.74       3414.14
          161       4412.15        54.868       3734.45       3410.46
          162       4411.37       62.3172        3748.1       3408.63
          163       4410.53        70.432        3762.7       3408.42
          164       4409.63       79.1743       3778.19       3409.87
          165       4408.65       88.5013       3794.67       3413.12
          166       4407.59       98.3701       3812.57       3418.39
          167       4406.44       108.731       3832.25       3426.05
          168       4405.19        119.52       3853.75       3436.31
          169       4403.83       130.675       3877.14       3449.38
          170       4402.35       142.129       3902.43       3465.41
          171       4400.76       153.794       3929.57       3484.41
          172       4399.04       165.634       3958.55       3506.42
          173       4397.19        177.53       3989.06        3531.3
          174       4395.23        189.43       4021.14          3559
          175       4393.15       201.274        4054.9       3589.38
          176       4390.94       212.987       4090.42       3622.27
          177        4388.6       224.545        4127.6       3657.64
          178       4386.12       235.885       4165.93        3695.3
          179       4383.49       246.965       4204.56       3735.06
          180       4380.68       257.793       4242.94       3777.03
          181       4377.67       268.373        4280.9       3821.22
          182       4374.46       278.676       4318.22        3867.5
          183       4371.03       288.642       4354.49       3915.55
          184        4367.4       298.267       4389.65       3965.35
          185       4363.55       307.549       4423.58       4016.77
          186       4359.48       316.483       4456.26       4069.64
          187        4355.2       325.076       4487.75       4123.88
          188       4350.72       333.327       4518.11        4179.2
          189       4346.05       341.255       4547.44       4235.49
          190        4341.2       348.876       4575.89       4292.47
          191       4336.16       356.216       4603.59       4349.95
          192       4330.95       363.289       4630.71        4407.6
          193       4325.55       370.114       4657.43       4465.13
          194       4319.99       376.701       4683.93       4522.17
          195       4314.26       383.066        4710.4       4578.36
          196       4308.36       389.221       4737.02       4633.31
          197       4302.29        395.18       4763.92       4686.68
          198       4296.06       400.954       4791.24        4738.1
          199       4289.67       406.562       4819.18       4787.28
          200       4283.11       412.012       4847.29       4833.88
          201       4276.38       417.319       4876.11       4877.65
          202       4269.48       422.489        4905.9       4918.37
          203       4262.41       427.526       4936.78       4955.85
          204       4255.16       432.441       4968.95       4990.02
          205       4247.76       437.224        5002.5       5020.74
          206       4240.22       441.879       5037.62       5048.04
          207       4232.53       446.412       5074.45       5072.06
          208       4224.72       450.823       5113.14       5092.93
          209       4216.79       455.111       5153.76       5110.89
          210       4208.75       459.279        5196.4       5126.19
          211       4200.59       463.331       5241.13       5139.12
          212       4192.33        467.27        5288.1       5149.97
          213       4183.97       471.098       5337.44       5159.02
          214       4175.52       474.815       5389.23       5166.53
          215       4166.97       478.432       5443.78       5172.77
          216       4158.33       481.949       5501.14       5177.94
          217        4149.6       485.369       5561.45       5182.24
          218       4140.79       488.695       5624.81       5185.81
          219        4131.9        491.93       5691.37       5188.79
          220       4122.95       495.077       5761.31       5191.27
          221       4113.93       498.138       5834.63       5193.32
          222       4104.86       501.117       5911.43       5194.99
          223       4095.73       504.015       5991.77       5196.32
          224       4086.55       506.835       6075.53        5197.3
          225       4077.33       509.578       6161.68       5197.95
          226       4068.06       512.247        6250.2       5198.26
          227       4058.75       514.844       6341.07       5198.22
          228        4049.4       517.369       6434.16       5197.83
          229       4040.01       519.825       6529.37       5197.07
          230       4030.59       522.213       6625.04       5195.96
          231       4021.13       524.535       6721.88       5194.48
          232       4011.64       526.791       6820.51       5192.64
          233       4002.12       528.983       6921.29       5190.46
          234       3992.57       531.113       7024.34       5187.96
          235          3983       533.181       7129.66       5185.16
          236        3973.4       535.189       7237.27       5182.08
          237       3963.78       537.139       7347.17       5178.76
          238       3954.13       539.031       7459.34       5175.23
          239       3944.46       540.868       7573.69       5171.51
          240       3934.78       542.649       7690.02       5167.65
          241       3925.08       544.378       7808.57       5163.66
          242       3915.36       546.055        7929.5       5159.59
          243       3905.63       547.683       8052.93       5155.47
          244       3895.88       549.262       8179.15       5151.31
          245       3886.13       550.794       8308.18       5147.14
          246       3876.37       552.281       8439.97       5142.99
          247        3866.6       553.725       8574.43       5138.88
          248       3856.83       555.127        8711.4       5134.82
          249       3847.06       556.489        8850.7       5130.83
          250       3837.29       557.812       8991.55       5126.92
          251       3827.53       559.098       9133.56       5123.11
          252       3817.77       560.349       9278.03        5119.4
          253       3808.02       561.565       9424.67       5115.81
          254       3798.28       562.749       9573.15       5112.35
          255       3788.55       563.902       9723.62       5109.01
          256       3778.85       565.024       9876.43        5105.8
          257       3769.16       566.118       10031.3       5102.73
          258        3759.5       567.184       10188.3        5099.8
          259       3749.87       568.224       10347.4       5097.02
          260       3740.27       569.238       10508.1       5094.38
          261        3730.7       570.227         10670       5091.89
          262       3721.17       571.194       10832.6       5089.54
          263       3711.67       572.137       10996.1       5087.33
          264       3702.21       573.059       11163.2       5085.26
          265        3692.8       573.959       11332.2       5083.33
          266       3683.43        574.84       11502.2       5081.53
          267       3674.11       575.701       11672.6       5079.86
          268       3664.83       576.543         11843       5078.31
          269        3655.6       577.367       12013.1       5076.88
          270       3646.41       578.174       12182.4       5075.56
          271       3637.27       578.964       12349.9       5074.34
          272       3628.18       579.737       12515.9       5073.21
          273       3619.14       580.495       12680.2       5072.18
          274       3610.15       581.237       12843.5       5071.22
          275        3601.2       581.965       13006.4       5070.34
          276       3592.31       582.678       13168.6       5069.54
          277       3583.46       583.378       13330.1       5068.79
          278       3574.66       584.065       13491.2        5068.1
          279       3565.91       584.738       13652.1       5067.46
          280       3557.22       585.398       13811.7       5066.87
          281       3548.58       586.046       13964.6       5066.33
          282       3539.98       586.681       14112.3       5065.82
          283       3531.45       587.305       14255.7       5065.36
          284       3522.96       587.916       14395.9       5064.93
          285       3514.54       588.515       14533.9       5064.53
          286       3506.16       589.102       14671.8       5064.17
          287       3497.85       589.677       14809.1       5063.84
          288       3489.59       590.241       14945.2       5063.55
          289       3481.39       590.794       15079.9        5063.3
          290       3473.26       591.335       15212.6       5063.08
          291       3465.18       591.866       15343.4        5062.9
          292       3457.17       592.385       15471.8       5062.77
          293       3449.23       592.893         15598       5062.68
          294       3441.36        593.39       15721.4       5062.64
          295       3433.55       593.877       15842.3       5062.65
          296       3425.82       594.354       15960.9       5062.71
          297       3418.17        594.82       16077.2       5062.82
          298       3410.59       595.276       16193.9          5063
          299        3403.1       595.722       16309.6       5063.23
          300       3395.69       596.157       16418.3       5063.52
          301       3388.36       596.584       16522.5       5063.88
          302       3381.13           597       16623.2       5064.31
          303       3373.99       597.408       16720.8        5064.8
          304       3366.94       597.806       16815.6       5065.37
          305       3359.99       598.195       16907.6          5066
          306       3353.14       598.575       16996.8       5066.71
          307       3346.39       598.946       17083.2        5067.5
          308       3339.74        599.31       17166.7       5068.36
          309        3333.2       599.665       17247.2        5069.3
          310       3326.76       600.012       17324.8       5070.32
          311       3320.42       600.352       17399.4       5071.42
          312       3314.19       600.684       17471.2        5072.6
          313       3308.07        601.01       17540.1       5073.87
          314       3302.04       601.329       17606.1       5075.21
          315       3296.13       601.642       17669.2       5076.64
          316       3290.31       601.949       17729.4       5078.15
          317        3284.6        602.25       17786.7       5079.75
          318       3278.98       602.545       17841.1       5081.43
          319       3273.47       602.836       17892.6       5083.21
          320       3268.05       603.122       17941.2       5085.07
          321       3262.73       603.402       17986.9       5087.03
          322       3257.51       603.678       18029.6       5089.09
          323       3252.37        603.95       18069.4       5091.24
          324       3247.33       604.218         18106        5093.5
          325       3242.37       604.481       18139.5       5095.86
          326        3237.5        604.74       18169.8       5098.34
          327       3232.72       604.996       18196.7       5100.93
          328       3228.02       605.248       18220.2       5103.64
          329       3223.41       605.497       18240.2       5106.47
          330       3218.87       605.742       18256.6       5109.44
          331       3214.42       605.983       18269.5       5112.53
          332       3210.05       606.222       18278.6       5115.77
          333       3205.75       606.458         18284       5119.15
          334       3201.54       606.691       18285.6       5122.67
          335        3197.4       606.921       18283.4       5126.35
          336       3193.33       607.149       18277.3       5130.18
          337       3189.35       607.375       18267.4       5134.18
          338       3185.43       607.598       18253.7       5138.34
          339       3181.59       607.819       18236.2       5142.67
          340       3177.82       608.038       18214.9       5147.17
          341       3174.13       608.255       18189.8       5151.84
          342        3170.5        608.47         18161       5156.68
          343       3166.95       608.683       18128.5       5161.69
          344       3163.47       608.895       18092.4       5166.88
          345       3160.05       609.106       18052.7       5172.23
          346        3156.7       609.315       18009.4       5177.75
          347       3153.41       609.523       17962.7       5183.41
          348        3150.2       609.729       17912.7       5189.23
          349       3147.04       609.935       17859.2       5195.18
          350       3143.95        610.14       17802.5       5201.26
          351       3140.93       610.344       17742.7       5207.45
          352       3137.97       610.547       17679.8       5213.75
          353       3135.06        610.75       17613.7       5220.13
          354       3132.22       610.952       17544.6       5226.57
          355       3129.45       611.153       17472.7       5233.05
          356       3126.73       611.354         17398       5239.55
          357       3124.06       611.555       17320.6       5246.05
          358       3121.46       611.756         17241       5252.52
          359       3118.91       611.956         17159       5258.94
          360       3116.42       612.156       17074.8       5265.28
          361       3113.98       612.357       16988.6       5271.51
          362       3111.59       612.557       16900.6       5277.59
          363       3109.26       612.757         16811       5283.48
          364       3106.97       612.958       16719.7       5289.14
          365       3104.73       613.159         16627       5294.53
          366       3102.54        613.36       16533.2       5299.62
          367       3100.39       613.562       16438.4       5304.35
          368       3098.28       613.764       16342.8       5308.67
          369       3096.22       613.966       16246.7       5312.54
          370       3094.19       614.169       16150.1       5315.89
          371        3092.2       614.372       16053.1       5318.66
          372       3090.25       614.576       15956.2       5320.79
          373       3088.34        614.78       15859.9       5322.23
          374       3086.46       614.983       15764.6        5322.9
          375       3084.62       615.186       15670.8       5322.74
          376       3082.82       615.388       15579.1       5321.69
          377       3081.06       615.588       15490.2       5319.67
          378       3079.35       615.785       15405.9       5316.62
          379       3077.69        615.98       15326.6       5312.47
          380       3076.07        616.17       15253.1       5307.18
          381        3074.5       616.355       15185.9       5300.73
          382       3072.99       616.535       15121.9       5293.22
          383       3071.52       616.709       15063.4       5284.78
          384       3070.11       616.875       15011.5        5275.2
          385       3068.73       617.035       14966.3       5264.55
          386       3067.41       617.187       14928.8        5253.3
          387       3066.13       617.329       14899.5        5241.5
          388       3064.89       617.462       14878.7       5229.19
          389        3063.7       617.585       14866.6        5216.6
          390       3062.55       617.698         14863       5203.89
          391       3061.45         617.8       14867.4       5191.16
          392       3060.38       617.891       14880.6       5178.36
          393       3059.36        617.97       14902.5       5165.26
          394       3058.38       618.038       14931.3       5151.91
          395       3057.43       618.096       14967.5       5138.28
          396       3056.52       618.143       15008.9       5124.26
          397       3055.64       618.181       15054.8       5109.76
          398       3054.79        618.21       15102.8       5095.01
          399       3053.96        618.23       15151.1       5080.07
          400       3053.17       618.242       15198.6       5064.99
          401        3052.4       618.247       15243.7       5049.76
          402       3051.66       618.246       15285.4       5034.39
          403       3050.94       618.239       15322.8       5018.89
          404       3050.25       618.227       15355.1       5003.36
          405       3049.58       618.212       15381.7       4987.98
          406       3048.93       618.194       15402.3       4972.89
          407       3048.31       618.174       15416.6       4958.22
          408        3047.7       618.152       15424.2       4944.04
          409       3047.11        618.13       15425.7       4930.46
          410       3046.53       618.107       15421.4       4917.57
          411       3045.97       618.085       15411.9       4905.45
          412       3045.42       618.065       15398.2       4894.14
          413       3044.89       618.045       15381.4       4883.69
          414       3044.37       618.027       15362.6       4874.11
          415       3043.86       618.011       15343.1       4865.45
          416       3043.36       617.997       15324.1       4857.71
          417       3042.88       617.984       15306.7       4850.91
          418        3042.4       617.973       15292.3       4845.06
          419       3041.94       617.963       15281.8       4840.18
          420       3041.49       617.953       15275.9       4836.27
          421       3041.06       617.944       15275.1       4833.33
          422       3040.63       617.934       15279.7       4831.34
          423       3040.23       617.924         15290       4830.28
          424       3039.83       617.913       15305.8       4830.12
          425       3039.45       617.901         15327       4830.83