# Probe 0 (0.01407 -0.21 0.011046)
# Probe 1 (0.22008 -0.21 0.07476)
# Probe 2 (0.28182 -0.21 0.04662)
# Probe 3 (0.525 -0.21 0.0011802)
#       Probe             0             1             2             3
#        Time
            1       7372.32       1611.42      -5623.78      -144.581
            2       2694.47      -517.402      -4099.83      -69.6763
            3       1026.43      -731.298      -2274.19       81.0031
            4       304.965      -499.014      -1281.73       62.2211
            5       223.514      -383.965      -206.281       23.1057
            6       353.393      -354.607      -395.531       26.2169
            7       375.251      -366.912      -425.881        19.341
            8       392.237      -363.541      -529.008       10.6395
            9       387.399      -354.324      -615.846       10.6131
           10       374.909      -352.834      -738.872       12.6104
           11       353.071      -346.928      -644.736       10.3475
           12       344.679      -360.941      -677.102       8.92415
           13       347.209      -367.499      -657.492       7.77818
           14       329.901      -363.573      -685.679       4.95548
           15       316.971      -359.757      -659.337       3.87997
           16       336.821      -344.175       -528.73       2.74702
           17       351.124      -336.405       -423.12       5.70562
           18       358.134      -321.837      -385.965       7.04652
           19       365.581      -308.955      -370.114       10.5598
           20       364.764      -300.366      -360.056       14.2256
           21       358.473      -294.909      -354.458       16.6991
           22       348.887      -294.373      -380.498       18.0479
           23       344.547      -291.793      -389.321       20.8246
           24       344.758      -294.347       -426.89       24.1065
           25        338.51      -303.679      -436.818       26.8192
           26       338.521      -308.778       -446.32       30.4979
           27       338.631      -311.709      -431.318       34.2243
           28       339.248      -313.727      -412.368       37.9204
           29        339.47      -313.788      -390.398       41.8045
           30       339.219        -312.8      -367.605       46.0524
           31       339.506       -310.05      -348.977       50.9865
           32       339.419      -307.227      -330.069       56.5271
           33       338.468      -305.561      -308.369       61.9117
           34       334.521      -305.137      -289.441       67.8741
           35       326.037      -309.674      -276.107       73.0506
           36       317.333      -315.492      -268.687       77.9134
           37       309.084      -321.432      -277.133        86.171
           38       298.468      -328.429      -295.852       88.2117
           39       285.906      -339.358      -331.169       96.0045
           40       273.369       -350.89      -372.209       102.299
           41       260.443      -363.573      -418.557       107.634
           42       246.076       -379.04      -465.494       113.006
           43       226.702      -398.574      -499.549       118.078
           44       204.338      -422.302      -503.218       117.436
           45       181.007      -446.225      -475.458       124.106
           46       159.738      -468.846       -423.85       121.622
           47       139.305       -491.27       -368.28       120.163
           48       121.879        -511.9      -318.863       117.869
           49       106.905      -528.766      -279.607       113.883
           50         95.75      -538.921      -248.117       108.173
           51       88.5625       -539.83      -226.868       99.1421
           52       85.1224      -530.054      -219.107       86.7954
           53       92.3693      -504.278      -218.073       74.7209
           54       100.711      -472.165      -234.037       58.2063
           55        110.79      -432.815      -245.013       37.4044
           56       124.619      -388.848      -259.657        8.6372
           57       139.918      -341.441      -288.349      -16.0942
           58       160.978       -290.91      -326.793      -54.4413
           59       179.771      -245.022      -390.391      -93.3217
           60       200.626      -200.233      -468.732      -136.976
           61       217.762      -160.054      -558.567      -182.921
           62       237.262      -121.439      -643.834      -242.069
           63        245.85      -98.4279      -721.488      -301.602
           64       250.308      -85.3388        -770.8      -363.825
           65       249.635      -85.5389      -781.345      -428.349
           66       240.729      -99.3798      -740.929      -504.882
           67       230.813      -118.848       -634.85      -575.181
           68       221.395       -137.89       -477.75      -644.688
           69       214.464      -155.007      -321.838      -709.859
           70       206.761      -173.785      -201.877      -770.468
           71       200.752      -190.497      -119.654      -825.263
           72       194.022      -207.518      -68.1481       -873.68
           73       190.083      -219.564      -31.6564      -914.752
           74       185.876      -229.827      -6.64847       -947.68
           75       182.682      -238.024       11.0809      -972.119
           76       178.404      -246.395       20.5348      -987.696
           77       172.992      -254.988       21.6652      -995.614
           78       166.736      -264.018       13.1286       -995.66
           79       159.719      -273.272      -4.02166      -989.675
           80         152.1      -282.751      -29.9962      -977.712
           81       144.085      -292.744      -64.6247      -961.539
           82       135.557      -302.925      -103.909      -942.812
           83       127.957      -311.663      -142.688      -921.965
           84       121.264      -318.659      -177.994      -901.112
           85       116.288       -322.81      -208.668      -881.169
           86       112.836      -324.307      -236.065      -862.721
           87       110.773      -323.007      -261.578      -846.897
           88       109.931      -319.172      -287.506      -834.057
           89       109.447      -313.519       -316.18      -824.897
           90       109.716       -306.36      -347.842      -818.482
           91       110.393       -298.69      -381.707      -813.633
           92       113.527      -287.108      -412.394      -807.588
           93       118.092      -274.272      -439.479      -796.418
           94       122.775      -261.457      -458.834      -779.551
           95       128.882      -247.367      -468.104       -755.04
           96        135.28      -233.453      -463.499      -734.995
           97       141.659       -220.52      -442.251      -721.251
           98       146.949      -209.899      -404.787      -715.188
           99       150.612      -202.055      -353.607      -717.796
          100       154.592      -196.219      -296.233      -728.568
          101       156.974      -194.318       -241.12      -747.049
          102        156.63      -197.392      -197.421       -771.52
          103       155.418      -203.607      -169.336      -803.185
          104       150.601      -215.324      -157.599      -838.553
          105       145.032      -229.776      -157.967      -876.276
          106       135.586      -250.482      -173.602      -914.826
          107       128.806      -268.903      -190.211      -955.968
          108       123.985      -284.585      -206.377      -996.665
          109       120.713      -297.475      -219.391      -1033.04
          110       119.168      -307.225      -228.452      -1063.44
          111       119.944      -313.381      -231.411      -1086.44
          112       121.583      -317.759       -231.36      -1102.19
          113       121.484      -322.979      -232.032      -1110.42
          114       120.284      -329.384       -236.05      -1110.16
          115       120.592      -332.197      -235.373       -1112.1
          116       119.479      -337.413      -239.432      -1085.83
          117       118.141      -341.851      -244.866      -1059.84
          118       117.608      -345.179      -251.192      -1023.38
          119       118.404      -346.658      -256.712      -972.239
          120       121.513      -345.986      -260.154      -902.341
          121       124.756      -344.472      -261.701      -812.034
          122       128.841      -341.674      -260.682      -700.561
          123       133.277      -338.015      -257.514      -569.591
          124       138.512      -333.314      -252.032      -423.037
          125       145.202      -326.843      -243.366      -268.441
          126       152.845      -319.196      -232.405      -111.947
          127       160.918      -310.941      -219.624        36.334
          128       169.203      -302.331      -205.506       161.475
          129       178.232      -292.916       -189.95       239.695
          130       188.048       -282.43      -172.673       273.157
          131       198.877      -270.751      -154.072       285.744
          132       210.889      -257.928      -134.731       287.352
          133        223.66      -244.131       -115.04       280.934
          134       237.309      -229.567      -95.6031       274.946
          135       251.311      -214.674      -76.8608       272.537
          136       265.178      -199.941      -59.2957        272.43
          137        279.23      -185.139      -42.6493        274.88
          138        293.44      -170.351      -26.8569       280.081
          139       307.709      -155.452      -11.2404       288.662
          140       321.947      -140.661       3.99773       299.519
          141        336.02      -126.125       18.8675       311.612
          142       349.731      -111.963       33.3986       324.041
          143       363.279      -97.9214       48.0623       335.922
          144       376.897      -83.7956       62.9903       346.761
          145       390.864      -69.2737       78.6396       356.687
          146       405.366      -54.1742       95.1276        365.91
          147       420.661      -38.2225       112.779       374.451
          148       436.769      -21.3833       131.608       382.285
          149       453.599      -3.75922       151.441       388.937
          150       471.128       14.6333       172.253       394.149
          151       489.026        33.496       193.705       397.346
          152       507.268       52.7054       215.528       398.225
          153        525.44       71.8346       237.239       396.461
          154       543.173       90.6381        258.68       391.967
          155       560.027       108.454        278.92       384.549
          156       575.704       125.106       297.892       374.201
          157       589.758       140.092       314.969       360.915
          158       601.615       152.725       329.361       344.851
          159       611.016       162.875       341.098       326.151
          160        617.56        169.96       349.339       305.168
          161       620.957       173.782       354.033        281.95
          162        621.31       174.231       354.818       256.831
          163        617.99       170.952       351.672       229.765
          164       611.581       164.466       345.051       201.311
          165       602.596       155.057       335.016       171.805
          166       591.384       143.232       322.347       141.771
          167       578.521       129.614       307.721       111.697
          168        564.75       114.871       291.757       82.1758
          169       550.523       99.5349       275.146       53.7046
          170       536.332       84.0779       258.342       26.6028
          171       522.502       68.9116       241.883       1.34995
          172       509.406       54.4375       226.221      -21.9132
          173       497.418       40.9653       211.527      -43.0144
          174       486.454       28.4649       197.916       -61.933
          175       476.585       17.0546       185.525      -78.6082
          176        467.83       6.73788       174.329      -93.0075
          177       460.116      -2.47469       164.392      -104.935
          178       453.753      -10.3229       155.909       -113.96
          179       448.824      -16.6368        149.15      -119.901
          180        444.52      -22.3373       143.029       -123.99
          181        440.69       -27.513       137.519      -126.534
          182         436.8      -32.7026       132.079       -128.61
          183       432.068      -38.6811       125.846      -131.388
          184       427.421      -44.6113       119.579      -133.316
          185       423.463      -49.8299       114.055        -133.8
          186       420.152      -54.3491       109.259      -132.877
          187       417.564       -58.123       105.217      -130.663
          188       415.672      -61.1891       101.887      -127.325
          189       414.356       -63.627        99.254       -123.04
          190       413.536       -65.544         97.14       -118.16
          191        412.92       -67.215       95.3272      -113.051
          192       412.341       -68.845       93.5488      -108.035
          193       411.687      -70.5392       91.7048      -103.318
          194       410.792      -72.4622       89.6227      -99.0534
          195       409.659      -74.6274       87.2852        -95.29
          196       408.254      -77.0729       84.6543      -92.0067
          197       406.631      -79.7174       81.8443      -89.1488
          198       404.737      -82.6295       78.7564      -86.6534
          199       402.624      -85.7586       75.4372      -84.4571
          200       400.273      -89.1344       71.8629      -82.5361
          201       397.784      -92.6292        68.189      -80.8413
          202       395.092      -96.3555       64.2586      -79.3691
          203       392.263      -100.194       60.2335       -78.198
          204       389.213      -104.267       55.9563      -77.4508
          205           386      -108.506       51.4945      -77.1683
          206       382.656      -112.899       46.8611      -77.3177
          207       379.204       -117.38       42.1471      -77.8189
          208       375.826      -121.826       37.4508      -78.5129
          209       372.411      -126.286        32.758      -79.3581
          210       369.094       -130.64       28.1882      -80.2539
          211       365.861      -134.905       23.7194      -81.1776
          212       362.724      -139.077       19.3497      -82.1126
          213        359.68       -143.15       15.0926       -83.055
          214       356.754       -147.09       10.9868      -83.9611
          215       353.922      -150.961       6.93678      -84.8463
          216       351.212      -154.684       3.06876      -85.6831
          217       348.591      -158.314     -0.695025      -86.5035
          218       346.083      -161.831      -4.33992      -87.2856
          219       343.664      -165.247      -7.86571       -88.023
          220       341.336      -168.571      -11.2864      -88.7237
          221       339.118      -171.775      -14.5647        -89.38
          222       336.971       -174.89      -17.7242      -89.9924
          223       334.933      -177.893      -20.7508      -90.5596
          224        332.97      -180.813      -23.6713      -91.0647
          225       331.098      -183.627      -26.4513      -91.5057
          226       329.302      -186.345      -29.1007      -91.8837
          227       327.586      -188.971      -31.6302      -92.1871
          228       325.944      -191.506      -34.0401      -92.4102
          229       324.375      -193.954      -36.3395      -92.5421
          230       322.869      -196.326      -38.5447      -92.5752
          231       321.447       -198.59      -40.6119      -92.5031
          232       320.075      -200.789      -42.6026      -92.3302
          233        318.77      -202.907      -44.5035      -92.0484
          234       317.497      -204.991      -46.3773       -91.661
          235       316.305      -206.969      -48.1236       -91.158
          236       315.157      -208.892      -49.8134      -90.5566
          237       314.037      -210.781      -51.4792      -89.8629
          238       312.973      -212.601       -53.071      -89.0876
          239       311.946      -214.376       -54.618      -88.2451
          240       310.958      -216.099      -56.1109      -87.3471
          241       309.997      -217.789      -57.5752      -86.4104
          242       309.065      -219.445      -59.0081      -85.4537
          243       308.168      -221.055        -60.39      -84.4902
          244       307.296       -222.63       -61.734      -83.5381
          245        306.44      -224.186      -63.0649      -82.6106
          246       305.612      -225.703      -64.3519      -81.7173
          247       304.805       -227.19      -65.6047      -80.8705
          248       304.004      -228.666      -66.8544      -80.0765
          249       303.237        -230.1      -68.0551      -79.3316
          250       302.476      -231.516      -69.2371      -78.6413
          251       301.738      -232.905      -70.3911      -77.9994
          252       301.019      -234.266      -71.5145      -77.4006
          253       300.321      -235.596      -72.6031      -76.8354
          254       299.645      -236.896      -73.6595      -76.2947
          255       298.997      -238.159      -74.6744      -75.7646
          256       298.378      -239.382      -75.6462      -75.2317
          257       297.792      -240.564      -76.5725      -74.6836
          258        297.24      -241.701       -77.448      -74.1065
          259       296.729      -242.785      -78.2663      -73.4876
          260       296.263      -243.816      -79.0255      -72.8141
          261       295.842      -244.788      -79.7215      -72.0754
          262       295.472        -245.7      -80.3507      -71.2603
          263       295.161      -246.541      -80.8969      -70.3604
          264       294.901      -247.319      -81.3765      -69.3705
          265       294.707      -248.019      -81.7665      -68.2851
          266        294.57       -248.65      -82.0815      -67.1026
          267       294.497      -249.206      -82.3123      -65.8193
          268       294.491      -249.683       -82.452      -64.4354
          269       294.545      -250.085      -82.5147      -62.9541
          270       294.668      -250.406      -82.4811      -61.3731
          271       294.852      -250.653      -82.3691      -59.6979
          272       295.089       -250.83      -82.1793      -57.9347
          273       295.416      -250.914       -81.896      -56.0775
          274       295.793      -250.936       -81.546      -54.1415
          275       296.232      -250.885      -81.1274      -52.1297
          276       296.728      -250.764      -80.6332      -50.0447
          277       297.282      -250.578      -80.0726      -47.8932
          278       297.889      -250.327      -79.4493      -45.6807
          279       298.543      -250.016      -78.7645      -43.4189
          280        299.25      -249.644      -78.0164      -41.1081
          281       300.002      -249.214      -77.2065      -38.7542
          282       300.801      -248.728       -76.339      -36.3632
          283       301.641      -248.187      -75.4094      -33.9388
          284       302.523      -247.592      -74.4225      -31.4847
          285       303.448      -246.943      -73.3791      -29.0043
          286       304.413      -246.243      -72.2809      -26.4983
          287       305.419      -245.491      -71.1293      -23.9677
          288       306.466      -244.687      -69.9244      -21.4128
          289       307.554      -243.832      -68.6684      -18.8342
          290       308.684      -242.924      -67.3575      -16.2298
          291       309.856      -241.964      -65.9923       -13.596
          292       311.074      -240.948      -64.5734      -10.9339
          293       312.337      -239.876      -63.0976      -8.23688
          294       313.647      -238.747      -61.5621      -5.50283
          295       315.009      -237.557      -59.9632      -2.72854
          296       316.421      -236.307      -58.2997     0.0886224
          297       317.885      -234.993      -56.5693       2.95091
          298       319.402      -233.616      -54.7711       5.86079
          299       320.976      -232.172      -52.8996       8.82136
          300       322.603      -230.664      -50.9607       11.8339
          301        324.29      -229.083      -48.9413       14.9061
          302       326.037      -227.435      -46.8569       18.0338
          303       327.846       -225.71      -44.6833       21.2359
          304       329.718      -223.911      -42.4331       24.5029
          305       331.657      -222.034      -40.0994       27.8431
          306       333.661      -220.078      -37.6816       31.2582
          307       335.736      -218.041      -35.1771       34.7516
          308       337.887      -215.916      -32.5805       38.3276
          309       340.114      -213.702      -29.8938       41.9878
          310       342.419      -211.398       -27.108       45.7393
          311       344.806      -208.999      -24.2204       49.5831
          312       347.274      -206.506      -21.2335       53.5138
          313        349.83      -203.912      -18.1392       57.5382
          314       352.474      -201.219      -14.9438       61.6558
          315       355.206      -198.422      -11.6314       65.8764
          316       358.035      -195.517      -8.20805       70.1935
          317       360.957      -192.503      -4.66087       74.6175
          318       363.977       -189.38      -1.00289       79.1361
          319       367.095      -186.144       2.77763       83.7597
          320       370.317      -182.791       6.68399       88.4875
          321       373.643      -179.319        10.718       93.3228
          322       377.078      -175.724       14.8817       98.2666
          323       380.621      -172.007       19.1771        103.32
          324       384.273      -168.166       23.6046       108.475
          325        388.04      -164.195       28.1704       113.736
          326       391.922      -160.095       32.8709       119.101
          327       395.919      -155.863       37.7133       124.575
          328       400.037      -151.496       42.6991       130.149
          329       404.269      -147.001       47.8192        135.82
          330       408.628      -142.362         53.09        141.59
          331       413.116      -137.579        58.508       147.455
          332       417.704      -132.683       64.0567       153.413
          333       422.446      -127.611       69.7825       159.462
          334       427.289      -122.428       75.6295        165.59
          335       432.272       -117.09       81.6329       171.804
          336       437.367       -111.62       87.7903       178.104
          337       442.601      -106.001       94.0927       184.466
          338       447.961      -100.237       100.546       190.902
          339       453.435      -94.3451       107.142        197.41
          340       459.042      -88.3059       113.887        203.97
          341        464.77      -82.1296       120.774       210.578
          342       470.614      -75.8232       127.799       217.238
          343       476.588      -69.3699       134.971        223.94
          344       482.668      -62.8002       142.265       230.673
          345       488.864      -56.1022        149.69       237.423
          346       495.181      -49.2681       157.254       244.215
          347       501.597      -42.3237       164.932       251.026
          348       508.135      -35.2423       172.741       257.832
          349       514.782      -28.0404       180.666       264.651
          350       521.512      -20.7483       188.681        271.49
          351       528.369      -13.3137       196.833       278.319
          352       535.298      -5.79996       205.063       285.134
          353       542.344       1.84683       213.417        291.95
          354       549.442       9.53938       221.812       298.729
          355       556.666       17.3747       230.338       305.485
          356       563.967       25.2973       238.944       312.212
          357       571.347       33.3055       247.625       318.898
          358       578.772       41.3487        256.33       325.513
          359        586.32       49.5311       265.158       332.098
          360        593.94       57.7959       274.057       338.632
          361       601.592       66.0815       282.954       345.061
          362       609.335        74.461        291.93       351.476
          363       617.131       82.8904       300.942       357.796
          364       625.014       91.4099       310.016        364.06
          365       632.946       99.9781       319.113       370.249
          366       640.938       108.594        328.23       376.382
          367       648.969       117.246       337.351       382.451
          368       657.051        125.94        346.48       388.476
          369       665.177       134.667       355.612       394.492
          370       673.331       143.399       364.694       400.481
          371       681.516        152.16       373.775       406.543
          372       689.701       160.885       382.757       412.632
          373       697.899       169.604       391.684       418.843
          374       706.053       178.253       400.481       425.215
          375       714.181       186.844       409.156       431.802
          376       722.237       195.331       417.661       438.646
          377       730.186        203.66        425.92       445.766
          378       737.963       211.778       433.891       453.191
          379       745.537       219.639       441.512       460.929
          380       752.856       227.184       448.721        468.93
          381       759.824       234.312       455.409       477.103
          382       766.298        240.89       461.444       485.353
          383        772.23       246.852       466.775       493.456
          384       777.503       252.035       471.125       501.101
          385       781.855       256.232       474.448       508.045
          386       785.064        259.25       476.501        513.98
          387       787.174       260.976       477.037       518.296
          388       787.767       261.097       475.928       520.678
          389       786.866       259.633       473.191       520.661
          390         783.9       256.115       468.396       517.732
          391       779.198       250.861       461.966       511.727
          392       772.624       243.546       453.308       502.348
          393       764.303       234.563        443.13       489.522
          394       754.312       223.961        431.53       473.571
          395       742.709       211.534       417.928        454.56
          396       729.967       198.218       403.824       434.598
          397       715.869       183.413       388.162        413.16
          398       701.304       168.196       372.211        391.77
          399        686.66       152.962        356.39       371.107
          400       672.428       138.202       341.182       351.851
          401        659.31       124.616       327.275       334.765
          402       647.726       112.641       315.099       320.371
          403       638.126       102.684       305.027       309.052
          404       630.587       94.9077       297.307       301.085
          405       625.387       89.5081       292.039       296.502
          406        622.43       86.4518       289.245       295.205
          407       621.621       85.6078       288.742        296.87
          408       622.701       86.7501       290.333       301.046
          409       625.457       89.5371       293.541       307.062
          410       629.216       93.3601       297.806       314.094
          411       633.408       97.6582       302.555       321.321
          412        637.62       101.996       307.301       328.185
          413       641.543       106.034        311.67       334.303
          414       644.916         109.5       315.384       339.389
          415        647.57       112.218       318.259       343.251
          416       649.359       114.039       320.146       345.752
          417       650.177       114.859       320.956       346.799
          418       650.061       114.672       320.626       346.421
          419       648.867       113.386       319.099       344.673
          420         646.8       111.193       316.636       341.753
          421       643.979       108.199       313.292       337.796
          422       640.495         104.5       309.178       333.008
          423       636.423        100.18       304.406        327.56
          424       631.794       95.2806       299.031        321.52
          425       626.662       89.8412        293.08       314.892