# Probe 0 (0.01407 -0.21 0.011046)
# Probe 1 (0.22008 -0.21 0.07476)
# Probe 2 (0.28182 -0.21 0.04662)
# Probe 3 (0.525 -0.21 0.0011802)
#       Probe             0             1             2             3
#        Time
            1             (23.7987 -1.18772e-16 11.7709)             (44.0175 -1.25683e-18 -0.969511)             (29.1454 0 -16.0541)             (34.5965 0 0.000390307)
            2             (22.1911 4.87583e-16 17.6594)             (44.2544 2.25161e-18 -1.42466)             (4.7491 0 -10.7987)             (33.9967 0 -0.191038)
            3             (23.7208 1.5462e-16 16.9358)             (43.4791 3.02055e-19 -1.47892)             (-39.0693 0 -2.46227)             (34.2801 0 -0.1013)
            4             (20.9976 5.07259e-17 18.3814)             (43.093 -1.78186e-19 -0.965764)             (16.7599 0 5.08063)             (34.2943 0 -0.0596321)
            5             (22.1305 3.64529e-18 15.8792)             (42.8038 -7.5715e-20 -0.445065)             (-6.28821 0 -6.73714)             (33.9264 0 -0.00862598)
            6             (22.5358 -1.21795e-17 14.0569)             (42.9043 1.07171e-20 -0.267318)             (-15.4803 0 8.56988)             (33.2307 0 -0.00245742)
            7             (21.2759 -5.14732e-18 12.143)             (43.0819 5.64208e-20 -0.218816)             (-35.6058 0 29.3865)             (32.2677 0 -0.0269764)
            8             (18.2305 -5.58585e-18 9.05215)             (43.2022 3.90749e-20 -0.137796)             (-29.5029 0 -0.00214905)             (31.1515 0 -0.043909)
            9             (18.6764 -5.37403e-18 8.73242)             (43.2872 3.15405e-20 -0.0345533)             (-23.0981 0 19.7795)             (30.0053 0 -0.0794524)
           10             (18.9912 -4.04311e-18 9.75569)             (43.336 3.90802e-20 0.047694)             (-21.1855 0 1.91411)             (28.8581 0 -0.0981052)
           11             (20.6113 -2.56106e-18 11.5974)             (43.5036 3.37051e-20 0.215602)             (-15.3204 0 11.2492)             (27.6855 0 -0.09527)
           12             (21.7036 -3.54386e-18 11.4308)             (43.7469 5.54297e-20 0.40324)             (-13.3654 0 7.12945)             (26.4864 0 -0.100338)
           13             (20.0598 -4.93006e-18 10.7383)             (44.0134 4.79444e-20 0.640152)             (-1.30196 0 5.36926)             (25.3053 0 -0.104643)
           14             (20.4293 -2.45448e-18 9.25283)             (44.222 3.64009e-20 0.929471)             (-1.38374 0 13.3506)             (24.13 0 -0.103506)
           15             (21.8076 -3.65906e-18 8.69721)             (44.3643 3.56018e-20 1.18234)             (1.64244 0 0.683104)             (22.9772 0 -0.106844)
           16             (21.9767 -7.91738e-18 8.45063)             (44.41 2.21279e-20 1.41044)             (19.0946 0 -10.089)             (21.8776 0 -0.109601)
           17             (21.8873 -7.19725e-18 8.00224)             (44.3567 2.87084e-20 1.59815)             (24.968 0 -20.8816)             (20.8689 0 -0.108295)
           18             (22.0176 -6.09289e-18 8.02352)             (44.2409 2.05803e-20 1.79165)             (9.98681 0 -13.1533)             (19.9427 0 -0.10864)
           19             (21.9433 -6.23123e-18 8.06669)             (44.0708 2.08165e-20 1.99767)             (0.244262 0 -5.71874)             (19.1249 0 -0.108573)
           20             (21.9348 -5.26986e-18 8.06081)             (43.8353 2.38939e-20 2.14281)             (-5.32315 0 -5.24327)             (18.3906 0 -0.103662)
           21             (21.9409 -4.52824e-18 8.03426)             (43.5823 2.62276e-20 2.19843)             (-7.67173 0 -2.17102)             (17.7208 0 -0.0972499)
           22             (21.9836 -3.9913e-18 7.9731)             (43.354 3.08608e-20 2.15167)             (-9.18939 0 -4.4199)             (17.1081 0 -0.0892338)
           23             (22.0324 -4.61419e-18 7.83449)             (43.1962 2.87162e-20 2.02552)             (-8.8496 0 -3.95978)             (16.5529 0 -0.0823931)
           24             (22.0069 -5.09911e-18 7.63461)             (43.1352 3.40534e-20 1.83365)             (-8.54304 0 0.581066)             (16.0733 0 -0.0842288)
           25             (22.0244 -4.03879e-18 7.4019)             (43.1163 4.19005e-20 1.61959)             (-12.5541 0 2.6845)             (15.6354 0 -0.0689504)
           26             (22.0006 -4.66157e-18 7.1779)             (43.1627 3.86395e-20 1.41385)             (-14.3543 0 5.21894)             (15.2481 0 -0.0769529)
           27             (22.045 -4.47253e-18 6.91668)             (43.2141 3.71113e-20 1.24615)             (-14.2724 0 8.04059)             (14.8895 0 -0.0727359)
           28             (22.0426 -4.3673e-18 6.64959)             (43.285 3.66815e-20 1.10908)             (-13.1775 0 9.92177)             (14.5577 0 -0.075189)
           29             (22 -4.178e-18 6.33868)             (43.3672 3.4933e-20 1.01427)             (-14.2529 0 11.6936)             (14.2373 0 -0.0785401)
           30             (21.8969 -3.98307e-18 5.96651)             (43.4419 3.38986e-20 0.967841)             (-13.8934 0 11.7559)             (13.9357 0 -0.0803463)
           31             (21.7776 -3.93611e-18 5.60631)             (43.5022 3.18812e-20 0.957413)             (-11.3511 0 10.7936)             (13.6519 0 -0.0856123)
           32             (21.6511 -3.77603e-18 5.21042)             (43.5486 3.15111e-20 0.988519)             (-8.91667 0 10.1426)             (13.3879 0 -0.0909092)
           33             (21.532 -3.55815e-18 4.76565)             (43.5777 3.24366e-20 1.03882)             (-7.29048 0 9.88792)             (13.1388 0 -0.0969692)
           34             (21.4304 -3.10867e-18 4.28663)             (43.5974 3.35681e-20 1.09661)             (-5.94587 0 9.67629)             (12.8997 0 -0.0987585)
           35             (21.3409 -2.49894e-18 3.77519)             (43.6209 3.88587e-20 1.11332)             (-4.71821 0 8.88488)             (12.6537 0 -0.102592)
           36             (21.2741 -2.29037e-18 3.20969)             (43.6453 4.06555e-20 1.09348)             (-2.90583 0 7.38898)             (12.4003 0 -0.10913)
           37             (21.3332 -2.12886e-18 2.83672)             (43.7054 4.13715e-20 1.02676)             (-1.21418 0 6.09317)             (12.1926 0 -0.118211)
           38             (21.2414 -1.77466e-18 2.02322)             (43.7995 4.31444e-20 0.926131)             (-0.456111 0 5.01579)             (11.9049 0 -0.124034)
           39             (21.3378 -1.40347e-18 1.65748)             (43.9499 4.825e-20 0.79522)             (-1.23637 0 4.92244)             (11.627 0 -0.135619)
           40             (21.3899 -1.24793e-18 1.19462)             (44.1668 5.01142e-20 0.659848)             (-3.19407 0 5.69626)             (11.3067 0 -0.146244)
           41             (21.4063 -1.07387e-18 0.706221)             (44.4334 5.2581e-20 0.537391)             (-5.77684 0 7.09584)             (10.9095 0 -0.157544)
           42             (21.4423 -8.29442e-19 0.25688)             (44.744 5.68727e-20 0.442515)             (-8.36572 0 8.86582)             (10.4161 0 -0.171966)
           43             (21.2983 -3.41717e-19 -0.15449)             (45.1074 6.274e-20 0.38292)             (-9.81904 0 10.6162)             (9.81107 0 -0.190945)
           44             (21.0718 7.41002e-21 -0.510007)             (45.5365 6.89424e-20 0.337765)             (-8.64179 0 10.8975)             (9.03573 0 -0.209655)
           45             (20.7646 2.34615e-19 -0.514693)             (46.0116 7.10226e-20 0.365496)             (-3.46113 0 8.40366)             (8.18289 0 -0.235125)
           46             (20.3389 2.47296e-19 -0.560254)             (46.5479 7.1246e-20 0.484095)             (6.36075 0 0.857023)             (7.16932 0 -0.257122)
           47             (19.7541 3.31361e-19 -0.374567)             (47.1333 7.21937e-20 0.744777)             (13.8589 0 -6.27635)             (6.03392 0 -0.281658)
           48             (19.0676 2.73905e-19 -0.0549445)             (47.7355 7.10221e-20 1.18521)             (14.2021 0 -8.57636)             (4.77425 0 -0.307428)
           49             (18.3562 2.36537e-19 0.388202)             (48.2894 6.73402e-20 1.83781)             (11.044 0 -7.94222)             (3.37059 0 -0.334457)
           50             (17.5754 7.55907e-20 0.923928)             (48.6962 6.03188e-20 2.71368)             (7.38471 0 -6.69428)             (1.80651 0 -0.362663)
           51             (16.7586 -1.45648e-19 1.58087)             (48.875 5.0607e-20 3.79662)             (3.31565 0 -4.97479)             (0.0535748 0 -0.381031)
           52             (15.9781 -4.05394e-19 2.38324)             (48.7291 3.94843e-20 5.01995)             (0.136769 0 -3.11126)             (-1.87269 0 -0.351904)
           53             (15.4158 -1.3363e-18 3.25317)             (48.1877 2.37937e-20 6.27361)             (-3.10556 0 -1.30299)             (-3.62228 0 -0.3601)
           54             (14.9684 -1.589e-18 4.08197)             (47.2568 1.60384e-20 7.37735)             (-5.27981 0 -0.0355)             (-5.32354 0 -0.370069)
           55             (14.657 -1.96781e-18 4.86978)             (46.0055 7.53091e-21 8.22105)             (-7.17729 0 0.886045)             (-7.18494 0 -0.389301)
           56             (14.2427 -2.67381e-18 5.62159)             (44.6018 7.27259e-22 8.68569)             (-8.37956 0 1.48887)             (-9.10359 0 -0.412069)
           57             (13.8476 -3.38233e-18 6.3931)             (43.1752 -5.62514e-21 8.77906)             (-8.95381 0 1.82578)             (-11.1977 0 -0.445204)
           58             (12.837 -4.22271e-18 6.83915)             (41.9436 -1.24891e-20 8.53864)             (-9.20162 0 2.16885)             (-13.2254 0 -0.472764)
           59             (11.6167 -4.01616e-18 6.86055)             (40.932 -1.34657e-20 8.0903)             (-9.38661 0 2.82595)             (-15.3257 0 -0.503623)
           60             (10.6854 -4.43801e-18 6.25079)             (40.1262 -1.74491e-20 7.53712)             (-10.0502 0 3.83137)             (-17.4402 0 -0.527605)
           61             (10.3848 -4.5568e-18 4.95149)             (39.4668 -1.82793e-20 6.9652)             (-11.2703 0 5.02073)             (-19.7313 0 -0.545263)
           62             (10.2784 -6.23847e-18 3.69126)             (38.9749 -2.15552e-20 6.43503)             (-12.652 0 6.17792)             (-21.8919 0 -0.560994)
           63             (10.7877 -5.3232e-18 2.71724)             (38.6456 -1.06834e-20 5.94334)             (-13.4113 0 7.06029)             (-24.0766 0 -0.568627)
           64             (11.4179 -4.23554e-18 2.24567)             (38.4824 -3.38282e-21 5.48772)             (-13.2433 0 7.53403)             (-26.1989 0 -0.566114)
           65             (11.8003 -3.34132e-18 1.88529)             (38.4728 8.85579e-21 5.03864)             (-11.9919 0 7.48507)             (-28.2365 0 -0.562176)
           66             (11.9841 -2.08266e-18 1.73735)             (38.5966 2.33544e-20 4.56983)             (-8.68126 0 6.78424)             (-30.3151 0 -0.526232)
           67             (12.0443 -1.76998e-18 1.64527)             (38.8264 3.1218e-20 4.14396)             (-1.85622 0 3.95299)             (-32.1482 0 -0.508432)
           68             (12.0247 -1.63532e-18 1.72932)             (39.1137 3.32422e-20 3.7787)             (11.8852 0 -4.51811)             (-33.8952 0 -0.468719)
           69             (11.9082 -1.77157e-18 1.84087)             (39.4277 3.35188e-20 3.47727)             (21.8184 0 -11.8401)             (-35.4882 0 -0.430728)
           70             (11.7723 -1.56844e-18 1.97937)             (39.7504 3.74621e-20 3.22712)             (23.1236 0 -13.5738)             (-36.9287 0 -0.385734)
           71             (11.6216 -1.6603e-18 2.10854)             (40.0634 3.74112e-20 3.02387)             (21.3382 0 -12.6397)             (-38.207 0 -0.335576)
           72             (11.4711 -1.5057e-18 2.22204)             (40.3549 3.97027e-20 2.85988)             (20.4296 0 -11.8748)             (-39.3388 0 -0.282211)
           73             (11.3345 -1.74892e-18 2.3198)             (40.6077 3.61271e-20 2.73291)             (19.6627 0 -11.629)             (-40.3114 0 -0.222086)
           74             (11.1964 -1.68045e-18 2.3963)             (40.818 3.55231e-20 2.63984)             (17.8193 0 -10.9813)             (-41.1505 0 -0.163938)
           75             (11.0544 -1.76144e-18 2.45376)             (40.9888 3.43854e-20 2.57182)             (15.0998 0 -9.73644)             (-41.8588 0 -0.103432)
           76             (10.9075 -1.61766e-18 2.49433)             (41.1246 3.54879e-20 2.52282)             (12.3029 0 -8.22799)             (-42.4452 0 -0.0404137)
           77             (10.7552 -1.45583e-18 2.51836)             (41.2304 3.66536e-20 2.4877)             (9.80872 0 -6.73932)             (-42.9099 0 0.0278987)
           78             (10.5972 -1.31279e-18 2.52667)             (41.3141 3.80774e-20 2.46074)             (7.51951 0 -5.30846)             (-43.2719 0 0.105287)
           79             (10.4369 -1.16662e-18 2.5227)             (41.3802 3.93127e-20 2.43803)             (5.1637 0 -3.82315)             (-43.5514 0 0.190124)
           80             (10.2785 -1.02664e-18 2.50885)             (41.4341 4.05758e-20 2.4164)             (2.5435 0 -2.23023)             (-43.7609 0 0.274592)
           81             (10.124 -9.00353e-19 2.48511)             (41.4826 4.21835e-20 2.39285)             (-0.338847 0 -0.550272)             (-43.8882 0 0.358228)
           82             (9.97312 -7.49845e-19 2.45401)             (41.5257 4.34967e-20 2.36836)             (-3.02186 0 0.967904)             (-43.9711 0 0.450873)
           83             (9.83106 -7.73608e-19 2.41685)             (41.5635 4.30392e-20 2.3442)             (-5.02951 0 2.09807)             (-44.0211 0 0.550361)
           84             (9.69221 -8.07937e-19 2.37449)             (41.5927 4.2098e-20 2.32265)             (-6.63907 0 3.03431)             (-44.0717 0 0.660014)
           85             (9.56289 -9.62955e-19 2.3278)             (41.6087 3.97556e-20 2.30664)             (-8.01917 0 3.83839)             (-44.1441 0 0.787349)
           86             (9.43977 -1.11884e-18 2.27784)             (41.6096 3.73132e-20 2.299)             (-9.13979 0 4.48699)             (-44.282 0 0.92118)
           87             (9.33083 -1.27832e-18 2.22468)             (41.5909 3.44231e-20 2.30218)             (-9.95256 0 4.95756)             (-44.5105 0 1.04936)
           88             (9.22963 -1.43534e-18 2.17053)             (41.5502 3.15131e-20 2.31823)             (-10.4677 0 5.2815)             (-44.8455 0 1.12934)
           89             (9.13774 -1.486e-18 2.11752)             (41.4864 2.91139e-20 2.34774)             (-10.7911 0 5.56927)             (-45.2749 0 1.11978)
           90             (9.05505 -1.59466e-18 2.06727)             (41.4002 2.68579e-20 2.39058)             (-10.9997 0 5.88414)             (-45.7793 0 1.002)
           91             (8.9629 -1.66136e-18 2.00858)             (41.2942 2.5527e-20 2.44467)             (-11.1749 0 6.23033)             (-46.3364 0 0.782694)
           92             (8.88388 -2.02136e-18 1.95922)             (41.1671 2.03837e-20 2.50914)             (-11.3031 0 6.58909)             (-46.8522 0 0.530006)
           93             (8.81472 -2.26997e-18 1.91777)             (41.0264 1.77325e-20 2.57816)             (-11.4067 0 6.97086)             (-47.1636 0 0.267829)
           94             (8.75242 -2.35033e-18 1.8825)             (40.8763 1.63409e-20 2.64601)             (-11.3782 0 7.33423)             (-47.0647 0 0.0501264)
           95             (8.69303 -2.61618e-18 1.85289)             (40.7188 1.35163e-20 2.70905)             (-11.076 0 7.62254)             (-46.4339 0 -0.12322)
           96             (8.63941 -2.73962e-18 1.82562)             (40.5613 1.21454e-20 2.76228)             (-10.4948 0 7.72525)             (-45.2178 0 -0.285078)
           97             (8.59183 -2.8208e-18 1.80322)             (40.4096 1.16836e-20 2.80214)             (-9.63883 0 7.6822)             (-43.7009 0 -0.39885)
           98             (8.54902 -2.74854e-18 1.78469)             (40.27 1.28073e-20 2.8259)             (-8.44402 0 7.46439)             (-42.2459 0 -0.452214)
           99             (8.50973 -2.5843e-18 1.76919)             (40.1472 1.47113e-20 2.83174)             (-6.73477 0 6.93975)             (-41.1362 0 -0.458572)
          100             (8.47553 -2.67034e-18 1.75542)             (40.0538 1.60764e-20 2.81684)             (-4.18936 0 5.71685)             (-40.4922 0 -0.440896)
          101             (8.44508 -2.49168e-18 1.74384)             (39.9969 1.98299e-20 2.77966)             (-0.104482 0 2.94109)             (-40.2882 0 -0.413133)
          102             (8.4178 -2.13463e-18 1.73467)             (39.9804 2.5216e-20 2.72016)             (5.0539 0 -1.19001)             (-40.414 0 -0.381572)
          103             (8.39919 -1.99966e-18 1.72944)             (40.0096 2.91261e-20 2.63866)             (8.10406 0 -4.18329)             (-40.768 0 -0.35484)
          104             (8.38148 -1.47686e-18 1.72501)             (40.0846 3.60716e-20 2.53591)             (8.99261 0 -5.49979)             (-41.2543 0 -0.32823)
          105             (8.36699 -1.29974e-18 1.72147)             (40.2043 4.05416e-20 2.41468)             (8.77706 0 -5.91847)             (-41.8089 0 -0.299016)
          106             (8.35199 -6.89162e-19 1.71743)             (40.3723 4.93138e-20 2.27292)             (8.15849 0 -5.71677)             (-42.3546 0 -0.26775)
          107             (8.34061 -9.17896e-19 1.71504)             (40.5751 4.91354e-20 2.11912)             (7.30126 0 -5.24109)             (-42.872 0 -0.23032)
          108             (8.33283 -1.08448e-18 1.7136)             (40.7965 4.81742e-20 1.96024)             (6.42933 0 -4.59965)             (-43.3185 0 -0.185213)
          109             (8.32798 -1.22012e-18 1.7123)             (41.0233 4.68354e-20 1.80351)             (5.64938 0 -3.911)             (-43.6524 0 -0.133083)
          110             (8.32485 -1.39759e-18 1.71105)             (41.2447 4.47761e-20 1.65365)             (5.00147 0 -3.27662)             (-43.8469 0 -0.0753992)
          111             (8.32323 -1.67359e-18 1.71025)             (41.4524 4.18345e-20 1.51523)             (4.46615 0 -2.73537)             (-43.8884 0 -0.0119497)
          112             (8.32304 -1.78529e-18 1.70993)             (41.6438 4.05464e-20 1.38969)             (3.98652 0 -2.27842)             (-43.7716 0 0.0615078)
          113             (8.32344 -1.56826e-18 1.71023)             (41.8184 4.20396e-20 1.27732)             (3.50709 0 -1.87046)             (-43.5407 0 0.144352)
          114             (8.3257 -1.41406e-18 1.71116)             (41.9808 4.40154e-20 1.17633)             (2.99223 0 -1.49467)             (-43.1774 0 0.226076)
          115             (8.32776 -1.58205e-18 1.71168)             (42.122 4.06648e-20 1.08929)             (2.41538 0 -1.13785)             (-42.7883 0 0.306802)
          116             (8.33297 -1.39397e-18 1.71298)             (42.2521 4.37474e-20 1.01279)             (1.79478 0 -0.789942)             (-42.2371 0 0.387399)
          117             (8.33805 -1.34198e-18 1.71476)             (42.3707 4.34628e-20 0.945705)             (1.15768 0 -0.458314)             (-41.4957 0 0.474269)
          118             (8.3445 -1.41727e-18 1.7167)             (42.4784 4.27015e-20 0.886782)             (0.539033 0 -0.157388)             (-40.5426 0 0.566142)
          119             (8.35186 -1.5673e-18 1.7191)             (42.5748 4.0968e-20 0.835249)             (-0.0324361 0 0.094683)             (-39.3028 0 0.675874)
          120             (8.3612 -1.85359e-18 1.72211)             (42.6611 3.8675e-20 0.790727)             (-0.519711 0 0.300054)             (-37.702 0 0.797232)
          121             (8.37087 -1.89651e-18 1.72594)             (42.7362 3.76326e-20 0.752743)             (-0.910428 0 0.461317)             (-35.6634 0 0.935556)
          122             (8.38203 -2.02703e-18 1.73024)             (42.8003 3.59867e-20 0.720588)             (-1.19981 0 0.58232)             (-33.1318 0 1.1019)
          123             (8.39421 -2.10662e-18 1.73501)             (42.8537 3.46814e-20 0.693605)             (-1.39782 0 0.674471)             (-30.0826 0 1.31132)
          124             (8.4076 -2.24409e-18 1.74036)             (42.8975 3.30691e-20 0.670995)             (-1.51845 0 0.750196)             (-26.5046 0 1.58397)
          125             (8.4224 -2.46934e-18 1.7461)             (42.932 3.05083e-20 0.652102)             (-1.57514 0 0.814144)             (-22.3197 0 1.93937)
          126             (8.43796 -2.64996e-18 1.75262)             (42.9586 2.84269e-20 0.636149)             (-1.58096 0 0.865318)             (-17.1646 0 2.4115)
          127             (8.45474 -2.77859e-18 1.7598)             (42.9777 2.68601e-20 0.62283)             (-1.54728 0 0.905922)             (-10.0501 0 2.79043)
          128             (8.47316 -2.88492e-18 1.76738)             (42.9898 2.55147e-20 0.611754)             (-1.48667 0 0.935286)             (1.07698 0 2.25277)
          129             (8.49223 -3.05485e-18 1.77589)             (42.9962 2.36162e-20 0.602759)             (-1.41168 0 0.950785)             (11.5861 0 1.01585)
          130             (8.51317 -3.23684e-18 1.78438)             (42.9963 2.13225e-20 0.595794)             (-1.33012 0 0.952814)             (11.9111 0 0.360354)
          131             (8.53495 -3.45294e-18 1.79354)             (42.9907 1.87675e-20 0.590792)             (-1.24798 0 0.941136)             (9.8073 0 -0.324338)
          132             (8.55772 -3.69921e-18 1.80349)             (42.9802 1.61301e-20 0.587375)             (-1.17142 0 0.917915)             (7.32529 0 -0.682338)
          133             (8.58259 -3.90862e-18 1.81337)             (42.965 1.35563e-20 0.58532)             (-1.10505 0 0.886752)             (5.80042 0 -0.600279)
          134             (8.60828 -4.13963e-18 1.82416)             (42.9465 1.11062e-20 0.584346)             (-1.05523 0 0.852046)             (4.9595 0 -0.520123)
          135             (8.6357 -4.31869e-18 1.83531)             (42.9253 9.06715e-21 0.58406)             (-1.02478 0 0.819162)             (4.20327 0 -0.483589)
          136             (8.6639 -4.4449e-18 1.84723)             (42.9024 7.54845e-21 0.584169)             (-1.01396 0 0.792819)             (3.09068 0 -0.43399)
          137             (8.69378 -4.60489e-18 1.85942)             (42.8784 5.78461e-21 0.584407)             (-1.02195 0 0.775421)             (1.81907 0 -0.342814)
          138             (8.72489 -4.76275e-18 1.87215)             (42.8544 4.10623e-21 0.584455)             (-1.0464 0 0.76813)             (0.643864 0 -0.238955)
          139             (8.75777 -4.91044e-18 1.88504)             (42.8298 2.28361e-21 0.584461)             (-1.08494 0 0.773022)             (-0.47516 0 -0.152657)
          140             (8.79189 -5.04805e-18 1.89827)             (42.805 6.97562e-22 0.584447)             (-1.13369 0 0.789063)             (-1.61915 0 -0.0844352)
          141             (8.82652 -5.16959e-18 1.91223)             (42.7802 -7.07985e-22 0.584431)             (-1.1888 0 0.813848)             (-2.88303 0 -0.0325126)
          142             (8.86251 -5.26725e-18 1.9264)             (42.7553 -1.94901e-21 0.584545)             (-1.24566 0 0.84513)             (-4.28581 0 0.00992546)
          143             (8.89985 -5.38268e-18 1.94089)             (42.7298 -3.43953e-21 0.584997)             (-1.30101 0 0.880365)             (-5.74076 0 0.0271249)
          144             (8.93839 -5.52178e-18 1.95567)             (42.7039 -5.15381e-21 0.585796)             (-1.35193 0 0.916708)             (-7.05293 0 0.0119432)
          145             (8.97793 -5.69175e-18 1.97084)             (42.677 -7.23793e-21 0.587203)             (-1.39618 0 0.951535)             (-8.17505 0 -0.0278342)
          146             (9.01877 -5.88519e-18 1.98617)             (42.6492 -9.57915e-21 0.589239)             (-1.43181 0 0.982657)             (-9.14021 0 -0.0791722)
          147             (9.06028 -6.11189e-18 2.00202)             (42.62 -1.23053e-20 0.592067)             (-1.45836 0 1.00845)             (-10.0102 0 -0.133675)
          148             (9.10264 -6.34864e-18 2.01823)             (42.5893 -1.51735e-20 0.595786)             (-1.47574 0 1.02812)             (-10.8324 0 -0.184237)
          149             (9.14606 -6.58321e-18 2.03463)             (42.5571 -1.80285e-20 0.600375)             (-1.48432 0 1.0416)             (-11.636 0 -0.228132)
          150             (9.19027 -6.82222e-18 2.05138)             (42.5232 -2.09582e-20 0.605915)             (-1.48552 0 1.04932)             (-12.438 0 -0.263915)
          151             (9.23566 -7.03207e-18 2.06815)             (42.4874 -2.3635e-20 0.612408)             (-1.4809 0 1.05248)             (-13.2477 0 -0.290332)
          152             (9.28143 -7.24265e-18 2.08542)             (42.4502 -2.62264e-20 0.619778)             (-1.47215 0 1.0517)             (-14.0716 0 -0.307099)
          153             (9.32739 -7.41149e-18 2.10326)             (42.4116 -2.83672e-20 0.62792)             (-1.46088 0 1.04795)             (-14.9105 0 -0.315362)
          154             (9.37436 -7.53965e-18 2.12109)             (42.3715 -3.02166e-20 0.636869)             (-1.44864 0 1.04299)             (-15.7583 0 -0.316629)
          155             (9.42192 -7.61557e-18 2.13928)             (42.3307 -3.12638e-20 0.646326)             (-1.43624 0 1.03746)             (-16.6033 0 -0.312468)
          156             (9.47025 -7.65056e-18 2.15758)             (42.2894 -3.19934e-20 0.656273)             (-1.42477 0 1.03245)             (-17.4292 0 -0.305318)
          157             (9.51915 -7.62558e-18 2.17613)             (42.2478 -3.20063e-20 0.6665)             (-1.41438 0 1.02825)             (-18.2175 0 -0.296057)
          158             (9.56859 -7.52281e-18 2.19501)             (42.2068 -3.10297e-20 0.676807)             (-1.40468 0 1.02472)             (-18.9484 0 -0.286152)
          159             (9.61873 -7.37027e-18 2.21408)             (42.1665 -2.96274e-20 0.687101)             (-1.39558 0 1.02249)             (-19.6052 0 -0.275947)
          160             (9.66942 -7.15048e-18 2.23336)             (42.1279 -2.72603e-20 0.697037)             (-1.3862 0 1.02038)             (-20.1788 0 -0.266046)
          161             (9.72081 -6.8712e-18 2.25288)             (42.0912 -2.43041e-20 0.706542)             (-1.37562 0 1.01836)             (-20.6656 0 -0.256734)
          162             (9.77254 -6.5712e-18 2.27302)             (42.0575 -2.08385e-20 0.71524)             (-1.36222 0 1.01515)             (-21.0681 0 -0.247994)
          163             (9.82469 -6.17498e-18 2.29353)             (42.0268 -1.65678e-20 0.723075)             (-1.34625 0 1.01046)             (-21.3936 0 -0.239831)
          164             (9.87834 -5.80312e-18 2.31384)             (41.9994 -1.24657e-20 0.729949)             (-1.32671 0 1.00462)             (-21.6512 0 -0.23107)
          165             (9.93216 -5.45468e-18 2.3348)             (41.9762 -8.32128e-21 0.735514)             (-1.30284 0 0.99615)             (-21.851 0 -0.22232)
          166             (9.98673 -5.1172e-18 2.35608)             (41.9573 -4.42593e-21 0.739742)             (-1.27491 0 0.985201)             (-22.0025 0 -0.213855)
          167             (10.0426 -4.81811e-18 2.37745)             (41.9426 -9.7536e-22 0.742594)             (-1.24335 0 0.972433)             (-22.1145 0 -0.204638)
          168             (10.0991 -4.58035e-18 2.3994)             (41.9324 1.90688e-21 0.744004)             (-1.20882 0 0.957866)             (-22.1946 0 -0.195311)
          169             (10.1564 -4.381e-18 2.42167)             (41.9262 4.29941e-21 0.744057)             (-1.17247 0 0.942159)             (-22.2488 0 -0.186138)
          170             (10.2139 -4.22881e-18 2.44448)             (41.9242 6.20895e-21 0.742745)             (-1.13494 0 0.925726)             (-22.2821 0 -0.176619)
          171             (10.2722 -4.11109e-18 2.46717)             (41.9257 7.65231e-21 0.740215)             (-1.09763 0 0.909261)             (-22.2981 0 -0.16735)
          172             (10.3309 -4.03631e-18 2.48973)             (41.9304 8.59418e-21 0.736613)             (-1.06195 0 0.893854)             (-22.2994 0 -0.158421)
          173             (10.3889 -4.00793e-18 2.51251)             (41.9381 9.09499e-21 0.731957)             (-1.02799 0 0.879783)             (-22.2879 0 -0.14966)
          174             (10.4468 -3.98268e-18 2.53528)             (41.9485 9.51205e-21 0.726448)             (-0.997114 0 0.867162)             (-22.2648 0 -0.14103)
          175             (10.5043 -3.97535e-18 2.558)             (41.961 9.67852e-21 0.720257)             (-0.970134 0 0.856592)             (-22.2307 0 -0.132843)
          176             (10.5614 -3.98144e-18 2.5807)             (41.9754 9.71363e-21 0.713517)             (-0.947401 0 0.848444)             (-22.1861 0 -0.125127)
          177             (10.6183 -3.99165e-18 2.60332)             (41.991 9.60955e-21 0.706398)             (-0.929419 0 0.842939)             (-22.1312 0 -0.117691)
          178             (10.6748 -4.0442e-18 2.62588)             (42.0075 9.08099e-21 0.699031)             (-0.91621 0 0.839905)             (-22.0653 0 -0.110972)