# vtk DataFile Version 2.0
wallFaceSet
ASCII
DATASET POLYDATA
POINTS 1246 float
-0.850833 -0.42 -6.53423e-18 -0.850833 0 -6.53423e-18 -0.850204 0 -6.53423e-18 -0.850204 -0.42
-6.53423e-18 -0.847685 0 -6.53423e-18 -0.847685 -0.42 -6.53423e-18 -0.845165 0 -6.53423e-18
-0.845165 -0.42 -6.53423e-18 -0.842646 0 -6.53423e-18 -0.842646 -0.42 -6.53423e-18 -0.840127
0 -6.53423e-18 -0.840127 -0.42 -6.53423e-18 -0.837608 0 -6.53423e-18 -0.837608 -0.42
-6.53423e-18 -0.835089 0 -6.53423e-18 -0.835089 -0.42 -6.53423e-18 -0.83257 0 -6.53423e-18
-0.83257 -0.42 -6.53423e-18 -0.830051 0 -6.53423e-18 -0.830051 -0.42 -6.53423e-18 -0.827532
0 -6.53423e-18 -0.827532 -0.42 -6.53423e-18 -0.825013 0 -6.53423e-18 -0.825013 -0.42
-6.53423e-18 -0.822493 0 -6.53423e-18 -0.822493 -0.42 -6.53423e-18 -0.819974 0 -6.53423e-18
-0.819974 -0.42 -6.53423e-18 -0.817455 0 -6.53423e-18 -0.817455 -0.42 -6.53423e-18 -0.814936
0 -6.53423e-18 -0.814936 -0.42 -6.53423e-18 -0.812417 0 -6.53423e-18 -0.812417 -0.42
-6.53423e-18 -0.809898 0 -6.53423e-18 -0.809898 -0.42 -6.53423e-18 -0.807379 0 -6.53423e-18
-0.807379 -0.42 -6.53423e-18 -0.80486 0 -6.53423e-18 -0.80486 -0.42 -6.53423e-18 -0.80234
0 -6.53423e-18 -0.80234 -0.42 -6.53423e-18 -0.799821 0 -6.53423e-18 -0.799821 -0.42
-6.53423e-18 -0.797302 0 -6.53423e-18 -0.797302 -0.42 -6.53423e-18 -0.794783 0 -6.53423e-18
-0.794783 -0.42 -6.53423e-18 -0.792264 0 -6.53423e-18 -0.792264 -0.42 -6.53423e-18 -0.789745
0 -6.53423e-18 -0.789745 -0.42 -6.53423e-18 -0.787226 0 -6.53423e-18 -0.787226 -0.42
-6.53423e-18 -0.784707 0 -6.53423e-18 -0.784707 -0.42 -6.53423e-18 -0.782187 0 -6.53423e-18
-0.782187 -0.42 -6.53423e-18 -0.779668 0 -6.53423e-18 -0.779668 -0.42 -6.53423e-18 -0.777149
0 -6.53423e-18 -0.777149 -0.42 -6.53423e-18 -0.77463 0 -6.53423e-18 -0.77463 -0.42
-6.53423e-18 -0.772111 0 -6.53423e-18 -0.772111 -0.42 -6.53423e-18 -0.769592 0 -6.53423e-18
-0.769592 -0.42 -6.53423e-18 -0.767073 0 -6.53423e-18 -0.767073 -0.42 -6.53423e-18 -0.764554
0 -6.53423e-18 -0.764554 -0.42 -6.53423e-18 -0.762034 0 -6.53423e-18 -0.762034 -0.42
-6.53423e-18 -0.759515 0 -6.53423e-18 -0.759515 -0.42 -6.53423e-18 -0.756996 0 -6.53423e-18
-0.756996 -0.42 -6.53423e-18 -0.754477 0 -6.53423e-18 -0.754477 -0.42 -6.53423e-18 -0.751958
0 -6.53423e-18 -0.751958 -0.42 -6.53423e-18 -0.749439 0 -6.53423e-18 -0.749439 -0.42
-6.53423e-18 -0.74692 0 -6.53423e-18 -0.74692 -0.42 -6.53423e-18 -0.744401 0 -6.53423e-18
-0.744401 -0.42 -6.53423e-18 -0.741881 0 -6.53423e-18 -0.741881 -0.42 -6.53423e-18 -0.739362
0 -6.53423e-18 -0.739362 -0.42 -6.53423e-18 -0.736843 0 -6.53423e-18 -0.736843 -0.42
-6.53423e-18 -0.734324 0 -6.53423e-18 -0.734324 -0.42 -6.53423e-18 -0.731805 0 -6.53423e-18
-0.731805 -0.42 -6.53423e-18 -0.729286 0 -6.53423e-18 -0.729286 -0.42 -6.53423e-18 -0.726767
0 -6.53423e-18 -0.726767 -0.42 -6.53423e-18 -0.724248 0 -6.53423e-18 -0.724248 -0.42
-6.53423e-18 -0.721729 0 -6.53423e-18 -0.721729 -0.42 -6.53423e-18 -0.719209 0 -6.53423e-18
-0.719209 -0.42 -6.53423e-18 -0.71669 0 -6.53423e-18 -0.71669 -0.42 -6.53423e-18 -0.714171
0 -6.53423e-18 -0.714171 -0.42 -6.53423e-18 -0.711652 0 -6.53423e-18 -0.711652 -0.42
-6.53423e-18 -0.709133 0 -6.53423e-18 -0.709133 -0.42 -6.53423e-18 -0.706614 0 -6.53423e-18
-0.706614 -0.42 -6.53423e-18 -0.704095 0 -6.53423e-18 -0.704095 -0.42 -6.53423e-18 -0.701576
0 -6.53423e-18 -0.701576 -0.42 -6.53423e-18 -0.699056 0 -6.53423e-18 -0.699056 -0.42
-6.53423e-18 -0.696537 0 -6.53423e-18 -0.696537 -0.42 -6.53423e-18 -0.694018 0 -6.53423e-18
-0.694018 -0.42 -6.53423e-18 -0.691499 0 -6.53423e-18 -0.691499 -0.42 -6.53423e-18 -0.68898
0 -6.53423e-18 -0.68898 -0.42 -6.53423e-18 -0.686461 0 -6.53423e-18 -0.686461 -0.42
-6.53423e-18 -0.683942 0 -6.53423e-18 -0.683942 -0.42 -6.53423e-18 -0.681423 0 -6.53423e-18
-0.681423 -0.42 -6.53423e-18 -0.678903 0 -6.53423e-18 -0.678903 -0.42 -6.53423e-18 -0.676384
0 -6.53423e-18 -0.676384 -0.42 -6.53423e-18 -0.673865 0 -6.53423e-18 -0.673865 -0.42
-6.53423e-18 -0.671346 0 -6.53423e-18 -0.671346 -0.42 -6.53423e-18 -0.668827 0 -6.53423e-18
-0.668827 -0.42 -6.53423e-18 -0.666308 0 -6.53423e-18 -0.666308 -0.42 -6.53423e-18 -0.663789
0 -6.53423e-18 -0.663789 -0.42 -6.53423e-18 -0.66127 0 -6.53423e-18 -0.66127 -0.42
-6.53423e-18 -0.65875 0 -6.53423e-18 -0.65875 -0.42 -6.53423e-18 -0.656231 0 -6.53423e-18
-0.656231 -0.42 -6.53423e-18 -0.653712 0 -6.53423e-18 -0.653712 -0.42 -6.53423e-18 -0.651193
0 -6.53423e-18 -0.651193 -0.42 -6.53423e-18 -0.648674 0 -6.53423e-18 -0.648674 -0.42
-6.53423e-18 -0.646155 0 -6.53423e-18 -0.646155 -0.42 -6.53423e-18 -0.643636 0 -6.53423e-18
-0.643636 -0.42 -6.53423e-18 -0.641117 0 -6.53423e-18 -0.641117 -0.42 -6.53423e-18 -0.638597
0 -6.53423e-18 -0.638597 -0.42 -6.53423e-18 -0.636078 0 -6.53423e-18 -0.636078 -0.42
-6.53423e-18 -0.633559 0 -6.53423e-18 -0.633559 -0.42 -6.53423e-18 -0.63104 0 -6.53423e-18
-0.63104 -0.42 -6.53423e-18 -0.628521 0 -6.53423e-18 -0.628521 -0.42 -6.53423e-18 -0.626002
0 -6.53423e-18 -0.626002 -0.42 -6.53423e-18 -0.623483 0 -6.53423e-18 -0.623483 -0.42
-6.53423e-18 -0.620964 0 -6.53423e-18 -0.620964 -0.42 -6.53423e-18 -0.618445 0 -6.53423e-18
-0.618445 -0.42 -6.53423e-18 -0.615925 0 -6.53423e-18 -0.615925 -0.42 -6.53423e-18 -0.613406
0 -6.53423e-18 -0.613406 -0.42 -6.53423e-18 -0.610887 0 -6.53423e-18 -0.610887 -0.42
-6.53423e-18 -0.608368 0 -6.53423e-18 -0.608368 -0.42 -6.53423e-18 -0.605849 0 -6.53423e-18
-0.605849 -0.42 -6.53423e-18 -0.60333 0 -6.53423e-18 -0.60333 -0.42 -6.53423e-18 -0.600811
0 -6.53423e-18 -0.600811 -0.42 -6.53423e-18 -0.598292 0 -6.53423e-18 -0.598292 -0.42
-6.53423e-18 -0.595772 0 -6.53423e-18 -0.595772 -0.42 -6.53423e-18 -0.593253 0 -6.53423e-18
-0.593253 -0.42 -6.53423e-18 -0.590734 0 -6.53423e-18 -0.590734 -0.42 -6.53423e-18 -0.588215
0 -6.53423e-18 -0.588215 -0.42 -6.53423e-18 -0.585696 0 -6.53423e-18 -0.585696 -0.42
-6.53423e-18 -0.583177 0 -6.53423e-18 -0.583177 -0.42 -6.53423e-18 -0.580658 0 -6.53423e-18
-0.580658 -0.42 -6.53423e-18 -0.578139 0 -6.53423e-18 -0.578139 -0.42 -6.53423e-18 -0.575619
0 -6.53423e-18 -0.575619 -0.42 -6.53423e-18 -0.5731 0 -6.53423e-18 -0.5731 -0.42
-6.53423e-18 -0.570581 0 -6.53423e-18 -0.570581 -0.42 -6.53423e-18 -0.568062 0 -6.53423e-18
-0.568062 -0.42 -6.53423e-18 -0.565543 0 -6.53423e-18 -0.565543 -0.42 -6.53423e-18 -0.563024
0 -6.53423e-18 -0.563024 -0.42 -6.53423e-18 -0.560505 0 -6.53423e-18 -0.560505 -0.42
-6.53423e-18 -0.557986 0 -6.53423e-18 -0.557986 -0.42 -6.53423e-18 -0.555466 0 -6.53423e-18
-0.555466 -0.42 -6.53423e-18 -0.552947 0 -6.53423e-18 -0.552947 -0.42 -6.53423e-18 -0.550428
0 -6.53423e-18 -0.550428 -0.42 -6.53423e-18 -0.547909 0 -6.53423e-18 -0.547909 -0.42
-6.53423e-18 -0.54539 0 -6.53423e-18 -0.54539 -0.42 -6.53423e-18 -0.542871 0 -6.53423e-18
-0.542871 -0.42 -6.53423e-18 -0.540352 0 -6.53423e-18 -0.540352 -0.42 -6.53423e-18 -0.537833
0 -6.53423e-18 -0.537833 -0.42 -6.53423e-18 -0.535313 0 -6.53423e-18 -0.535313 -0.42
-6.53423e-18 -0.532794 0 -6.53423e-18 -0.532794 -0.42 -6.53423e-18 -0.530275 0 -6.53423e-18
-0.530275 -0.42 -6.53423e-18 -0.527756 0 -6.53423e-18 -0.527756 -0.42 -6.53423e-18 -0.525237
0 -6.53423e-18 -0.525237 -0.42 -6.53423e-18 -0.522718 0 -6.53423e-18 -0.522718 -0.42
-6.53423e-18 -0.520199 0 -6.53423e-18 -0.520199 -0.42 -6.53423e-18 -0.51768 0 -6.53423e-18
-0.51768 -0.42 -6.53423e-18 -0.515161 0 -6.53423e-18 -0.515161 -0.42 -6.53423e-18 -0.512641
0 -6.53423e-18 -0.512641 -0.42 -6.53423e-18 -0.510122 0 -6.53423e-18 -0.510122 -0.42
-6.53423e-18 -0.507603 0 -6.53423e-18 -0.507603 -0.42 -6.53423e-18 -0.505084 0 -6.53423e-18
-0.505084 -0.42 -6.53423e-18 -0.502565 0 -6.53423e-18 -0.502565 -0.42 -6.53423e-18 -0.500046
0 -6.53423e-18 -0.500046 -0.42 -6.53423e-18 -0.497527 0 -6.53423e-18 -0.497527 -0.42
-6.53423e-18 -0.495008 0 -6.53423e-18 -0.495008 -0.42 -6.53423e-18 -0.492488 0 -6.53423e-18
-0.492488 -0.42 -6.53423e-18 -0.489969 0 -6.53423e-18 -0.489969 -0.42 -6.53423e-18 -0.48745
0 -6.53423e-18 -0.48745 -0.42 -6.53423e-18 -0.484931 0 -6.53423e-18 -0.484931 -0.42
-6.53423e-18 -0.482412 0 -6.53423e-18 -0.482412 -0.42 -6.53423e-18 -0.479893 0 -6.53423e-18
-0.479893 -0.42 -6.53423e-18 -0.477374 0 -6.53423e-18 -0.477374 -0.42 -6.53423e-18 -0.474855
0 -6.53423e-18 -0.474855 -0.42 -6.53423e-18 -0.472335 0 -6.53423e-18 -0.472335 -0.42
-6.53423e-18 -0.469816 0 -6.53423e-18 -0.469816 -0.42 -6.53423e-18 -0.467297 0 -6.53423e-18
-0.467297 -0.42 -6.53423e-18 -0.464778 0 -6.53423e-18 -0.464778 -0.42 -6.53423e-18 -0.462259
0 -6.53423e-18 -0.462259 -0.42 -6.53423e-18 -0.45974 0 -6.53423e-18 -0.45974 -0.42
-6.53423e-18 -0.457221 0 -6.53423e-18 -0.457221 -0.42 -6.53423e-18 -0.454702 0 -6.53423e-18
-0.454702 -0.42 -6.53423e-18 -0.452182 0 -6.53423e-18 -0.452182 -0.42 -6.53423e-18 -0.449663
0 -6.53423e-18 -0.449663 -0.42 -6.53423e-18 -0.447144 0 -6.53423e-18 -0.447144 -0.42
-6.53423e-18 -0.444625 0 -6.53423e-18 -0.444625 -0.42 -6.53423e-18 -0.442106 0 -6.53423e-18
-0.442106 -0.42 -6.53423e-18 -0.439587 0 -6.53423e-18 -0.439587 -0.42 -6.53423e-18 -0.437068
0 -6.53423e-18 -0.437068 -0.42 -6.53423e-18 -0.434549 0 -6.53423e-18 -0.434549 -0.42
-6.53423e-18 -0.432029 0 -6.53423e-18 -0.432029 -0.42 -6.53423e-18 -0.42951 0 -6.53423e-18
-0.42951 -0.42 -6.53423e-18 -0.426991 0 -6.53423e-18 -0.426991 -0.42 -6.53423e-18 -0.424472
0 -6.53423e-18 -0.424472 -0.42 -6.53423e-18 -0.421953 0 -6.53423e-18 -0.421953 -0.42
-6.53423e-18 -0.419434 0 -6.53423e-18 -0.419434 -0.42 -6.53423e-18 -0.416915 0 -6.53423e-18
-0.416915 -0.42 -6.53423e-18 -0.414396 0 -6.53423e-18 -0.414396 -0.42 -6.53423e-18 -0.411876
0 -6.53423e-18 -0.411876 -0.42 -6.53423e-18 -0.409357 0 -6.53423e-18 -0.409357 -0.42
-6.53423e-18 -0.406838 0 -6.53423e-18 -0.406838 -0.42 -6.53423e-18 -0.404319 0 -6.53423e-18
-0.404319 -0.42 -6.53423e-18 -0.4018 0 -6.53423e-18 -0.4018 -0.42 -6.53423e-18 -0.399281
0 -6.53423e-18 -0.399281 -0.42 -6.53423e-18 -0.396762 0 -6.53423e-18 -0.396762 -0.42
-6.53423e-18 -0.394243 0 -6.53423e-18 -0.394243 -0.42 -6.53423e-18 -0.391723 0 -6.53423e-18
[...]
CELL_DATA 622
FIELD attributes 1
faceID 1 622 int
102630 102631 102632 102633 102634 102635 102636 102637 102638 102639 102640
102641 102642 102643 102644 102645 102646 102647 102648 102649 102650
102651 102652 102653 102654 102655 102656 102657 102658 102659 102660
102661 102662 102663 102664 102665 102666 102667 102668 102669 102670
102671 102672 102673 102674 102675 102676 102677 102678 102679 102680
102681 102682 102683 102684 102685 102686 102687 102688 102689 102690
102691 102692 102693 102694 102695 102696 102697 102698 102699 102700
102701 102702 102703 102704 102705 102706 102707 102708 102709 102710
102711 102712 102713 102714 102715 102716 102717 102718 102719 102720
102721 102722 102723 102724 102725 102726 102727 102728 102729 102730
102731 102732 102733 102734 102735 102736 102737 102738 102739 102740
102741 102742 102743 102744 102745 102746 102747 102748 102749 102750
102751 102752 102753 102754 102755 102756 102757 102758 102759 102760
102761 102762 102763 102764 102765 102766 102767 102768 102769 102770
102771 102772 102773 102774 102775 102776 102777 102778 102779 102780
102781 102782 102783 102784 102785 102786 102787 102788 102789 102790
102791 102792 102793 102794 102795 102796 102797 102798 102799 102800
102801 102802 102803 102804 102805 102806 102807 102808 102809 102810
102811 102812 102813 102814 102815 102816 102817 102818 102819 102820
102821 102822 102823 102824 102825 102826 102827 102828 102829 102830
102831 102832 102833 102834 102835 102836 102837 102838 102839 102840
102841 102842 102843 102844 102845 102846 102847 102848 102849 102850
102851 102852 102853 102854 102855 102856 102857 102858 102859 102860
102861 102862 102863 102864 102865 102866 102867 102868 102869 102870
102871 102872 102873 102874 102875 102876 102877 102878 102879 102880
102881 102882 102883 102884 102885 102886 102887 102888 102889 102890
102891 102892 102893 102894 102895 102896 102897 102898 102899 102900
102901 102902 102903 102904 102905 102906 102907 102908 102909 102910
102911 102912 102913 102914 102915 102916 102917 102918 102919 102920
102921 102922 102923 102924 102925 102926 102927 102928 102929 102930
102931 102932 102933 102934 102935 102936 102937 102938 102939 102940
102941 102942 102943 102944 102945 102946 102947 102948 102949 102950
102951 102952 102953 102954 102955 102956 102957 102958 102959 102960
102961 102962 102963 102964 102965 102966 102967 102968 102969 102970
102971 102972 102973 102974 102975 102976 102977 102978 102979 102980
102981 102982 102983 102984 102985 102986 102987 102988 102989 102990
102991 102992 102993 102994 102995 102996 102997 102998 102999 103000
103001 103002 103003 103004 103005 103006 103007 103008 103009 103010
103011 103012 103013 103014 103015 103016 103017 103018 103019 103020
103021 103022 103023 103024 103025 103026 103027 103028 103029 103030
103031 103032 103033 103034 103035 103036 103037 103038 103039 103040
103041 103042 103043 103044 103045 103046 103047 103048 103049 103050
103051 103052 103053 103054 103055 103056 103057 103058 103059 103060
103061 103062 103063 103064 103065 103066 103067 103068 103069 103070
103071 103072 103073 103074 103075 103076 103077 103078 103079 103080
103081 103082 103083 103084 103085 103086 103087 103088 103089 103090
103091 103092 103093 103094 103095 103096 103097 103098 103099 103100
103101 103102 103103 103104 103105 103106 103107 103108 103109 103110
103111 103112 103113 103114 103115 103116 103117 103118 103119 103120
103121 103122 103123 103124 103125 103126 103127 103128 103129 103130
103131 103132 103133 103134 103135 103136 103137 103138 103139 103140
103141 103142 103143 103144 103145 103146 103147 103148 103149 103150
103151 103152 103153 103154 103155 103156 103157 103158 103159 103160
103161 103162 103163 103164 103165 103166 103167 103168 103169 103170
103171 103172 103173 103174 103175 103176 103177 103178 103179 103180
103181 103182 103183 103184 103185 103186 103187 103188 103189 103190
103191 103192 103193 103194 103195 103196 103197 103198 103199 103200
103201 103202 103203 103204 103205 103206 103207 103208 103209 103210
103211 103212 103213 103214 103215 103216 103217 103218 103219 103220
103221 103222 103223 103224 103225 103226 103227 103228 103229 103230
103231 103232 103233 103234 103235 103236 103237 103238 103239 103240
103241 103242 103243 103244 103245 103246 103247 103248 103249 103250
103251 
