0.462 	-0.21 	2.01598e-05 	-136.638 	0.0162477 	2.89788e+06 	2.21885e-08
0.462 	-0.21 	6.04795e-05 	-136.639 	0.213414 	671945 	6.25596e-07
0.462 	-0.21 	0.000100799 	-136.64 	1.04189 	202189 	6.38369e-06
0.462 	-0.21 	0.000141119 	-136.643 	2.3059 	95178 	2.63904e-05
0.462 	-0.21 	0.000181438 	-136.648 	3.46778 	57425 	6.2712e-05
0.462 	-0.21 	0.000221758 	-136.655 	4.43515 	40446.9 	0.000111757
0.462 	-0.21 	0.000262757 	-136.664 	5.26653 	31111.6 	0.000171306
0.462 	-0.21 	0.00030808 	-136.676 	6.05602 	24887.3 	0.000245607
0.462 	-0.21 	0.000361505 	-136.691 	6.85891 	20287.7 	0.000340757
0.462 	-0.21 	0.000424474 	-136.711 	7.68426 	16778.7 	0.000461106
0.462 	-0.21 	0.000498276 	-136.736 	8.53413 	14051.4 	0.000610973
0.462 	-0.21 	0.000584202 	-136.766 	9.40928 	11899.5 	0.000794865
0.462 	-0.21 	0.000683475 	-136.804 	10.3092 	10181.2 	0.00101723
0.462 	-0.21 	0.000797155 	-136.849 	11.2321 	8796.01 	0.00128211
0.462 	-0.21 	0.000926014 	-136.902 	12.1745 	7671.2 	0.00159265
0.462 	-0.21 	0.00107041 	-136.964 	13.1317 	6752.85 	0.00195056
0.462 	-0.21 	0.00123015 	-137.035 	14.0972 	6000.19 	0.00235562
0.462 	-0.21 	0.00140437 	-137.114 	15.0634 	5381.74 	0.00280519
0.462 	-0.21 	0.00159146 	-137.2 	16.0215 	4872.85 	0.003294
0.462 	-0.21 	0.00178907 	-137.292 	16.9622 	4453.86 	0.00381419
0.462 	-0.21 	0.00199417 	-137.389 	17.8755 	4108.92 	0.00435573
0.462 	-0.21 	0.00220321 	-137.488 	18.7531 	3824.84 	0.00490779
0.462 	-0.21 	0.00241613 	-137.59 	19.6017 	3586.9 	0.0054693
0.462 	-0.21 	0.00263988 	-137.697 	20.4498 	3379.57 	0.00605543
0.462 	-0.21 	0.0028802 	-137.811 	21.317 	3194.64 	0.00667718
0.462 	-0.21 	0.00313824 	-137.932 	22.2065 	3029.34 	0.00733488
0.462 	-0.21 	0.00341526 	-138.061 	23.1202 	2881.65 	0.00802761
0.462 	-0.21 	0.00371257 	-138.197 	24.0602 	2749.86 	0.00875387
0.462 	-0.21 	0.00403158 	-138.34 	25.0286 	2632.55 	0.00951149
0.462 	-0.21 	0.00437378 	-138.49 	26.0277 	2528.52 	0.0102976
0.462 	-0.21 	0.00474073 	-138.647 	27.0598 	2436.78 	0.0111084
0.462 	-0.21 	0.00513411 	-138.81 	28.1273 	2356.48 	0.0119395
0.462 	-0.21 	0.00555566 	-138.979 	29.2326 	2286.95 	0.0127854
0.462 	-0.21 	0.00600724 	-139.153 	30.3785 	2227.62 	0.0136398
0.462 	-0.21 	0.00649079 	-139.33 	31.5673 	2178.04 	0.0144957
0.462 	-0.21 	0.00700834 	-139.512 	32.8019 	2137.88 	0.0153449
0.462 	-0.21 	0.00756205 	-139.695 	34.0846 	2106.89 	0.016179
0.462 	-0.21 	0.00815413 	-139.88 	35.4178 	2084.91 	0.0169885
0.462 	-0.21 	0.00878692 	-140.066 	36.8034 	2071.85 	0.0177639
0.462 	-0.21 	0.00946284 	-140.251 	38.243 	2067.73 	0.0184952
0.462 	-0.21 	0.0101844 	-140.435 	39.7371 	2072.6 	0.0191723
0.462 	-0.21 	0.0109542 	-140.617 	41.2854 	2086.59 	0.0197854
0.462 	-0.21 	0.0117748 	-140.797 	42.886 	2109.9 	0.0203252
0.462 	-0.21 	0.012649 	-140.972 	44.5347 	2142.77 	0.0207828
0.462 	-0.21 	0.0135797 	-141.143 	46.2249 	2185.47 	0.0211502
0.462 	-0.21 	0.0145695 	-141.31 	47.9462 	2238.32 	0.0214199
0.462 	-0.21 	0.0156213 	-141.472 	49.6839 	2301.66 	0.0215858
0.462 	-0.21 	0.0167381 	-141.627 	51.4177 	2375.82 	0.0216422
0.462 	-0.21 	0.0179225 	-141.756 	53.1204 	2461.15 	0.0215604
0.462 	-0.21 	0.0191775 	-141.83 	54.7606 	2558.24 	0.0210168
0.462 	-0.21 	0.0205056 	-141.839 	56.2911 	2667.05 	0.0198275
0.462 	-0.21 	0.0219095 	-141.819 	57.6091 	2783.17 	0.0186127
0.462 	-0.21 	0.0233918 	-141.807 	58.5381 	2896.47 	0.0175808
0.462 	-0.21 	0.0249546 	-141.805 	58.8883 	2995.19 	0.0166819
0.462 	-0.21 	0.0266002 	-141.803 	58.5111 	3071.32 	0.015821
0.462 	-0.21 	0.0283302 	-141.8 	57.2333 	3123.8 	0.0149369
0.462 	-0.21 	0.0301464 	-141.802 	54.9567 	3156.32 	0.0140528
0.462 	-0.21 	0.0320499 	-141.823 	51.6084 	3173.26 	0.0132306
0.462 	-0.21 	0.0340415 	-141.879 	47.175 	3178.26 	0.0125308
0.462 	-0.21 	0.0361216 	-141.965 	41.6742 	3172.74 	0.0119267
0.462 	-0.21 	0.0382902 	-142.022 	34.9883 	3147.5 	0.0110342
0.462 	-0.21 	0.0405467 	-141.988 	26.692 	3055.74 	0.00871495
0.462 	-0.21 	0.0428898 	-141.917 	17.2601 	2761.29 	0.00620264
0.462 	-0.21 	0.045318 	-141.834 	8.96995 	2141.66 	0.00412657
0.462 	-0.21 	0.0478289 	-141.694 	4.33236 	1352.86 	0.00317366
0.462 	-0.21 	0.0504195 	-141.555 	2.75651 	836.696 	0.00330364
0.462 	-0.21 	0.0530862 	-141.411 	2.22656 	655.1 	0.00339889
0.462 	-0.21 	0.0558248 	-141.277 	1.88274 	593.119 	0.00317096
0.462 	-0.21 	0.0586304 	-141.149 	1.51436 	553.529 	0.00273085
0.462 	-0.21 	0.0614957 	-141.022 	1.11189 	505.507 	0.00219073
0.462 	-0.21 	0.0646921 	-140.882 	0.695921 	431.246 	0.00159587
0.462 	-0.21 	0.0687845 	-140.701 	0.310504 	312.2 	0.000961212
0.462 	-0.21 	0.0742512 	-140.449 	0.0739648 	156.583 	0.000421225
0.462 	-0.21 	0.0815239 	-140.124 	0.00883137 	37.4725 	0.000107916
0.462 	-0.21 	0.0911467 	-139.786 	0.00222891 	3.9807 	1.91319e-05
0.462 	-0.21 	0.103788 	-139.401 	0.00111083 	0.620067 	8.66007e-06
0.462 	-0.21 	0.120238 	-139.186 	0.000318526 	0.4713 	2.73657e-06
0.462 	-0.21 	0.141384 	-138.818 	6.44296e-05 	0.43719 	6.25197e-07
0.462 	-0.21 	0.168147 	-139.058 	4.9132e-05 	0.36585 	5.63843e-07
0.462 	-0.21 	0.20113 	-138.582 	4.85859e-05 	0.296199 	6.52629e-07
0.462 	-0.21 	0.240324 	-140.095 	4.79183e-05 	0.247738 	7.85549e-07
0.462 	-0.21 	0.2869 	-139.851 	4.74366e-05 	0.215771 	1.07351e-06
0.462 	-0.21 	0.343075 	-144.74 	4.72569e-05 	0.174843 	1.49276e-06
