/*--------------------------------*- C++ -*----------------------------------*\
  =========                 |
  \\      /  F ield         | OpenFOAM: The Open Source CFD Toolbox
   \\    /   O peration     | Website:  https://openfoam.org
    \\  /    A nd           | Version:  7
     \\/     M anipulation  |
\*---------------------------------------------------------------------------*/
FoamFile
{
    version     2.0;
    format      ascii;
    class       volVectorField;
    location    "0";
    object      C;
}
// * * * * * * * * * * * * * * * * * * * * * * * * * * * * * * * * * * * * * //

dimensions      [0 1 0 0 0 0 0];

internalField   nonuniform List<vector> 
51626
(
(-0.850519 -0.21 2.17492e-05)
(-0.848944 -0.21 2.17492e-05)
(-0.846425 -0.21 2.17492e-05)
(-0.843906 -0.21 2.17492e-05)
(-0.841387 -0.21 2.17492e-05)
(-0.838868 -0.21 2.17492e-05)
(-0.836349 -0.21 2.17492e-05)
(-0.833829 -0.21 2.17492e-05)
(-0.83131 -0.21 2.17492e-05)
(-0.828791 -0.21 2.17492e-05)
(-0.826272 -0.21 2.17492e-05)
(-0.823753 -0.21 2.17492e-05)
(-0.821234 -0.21 2.17492e-05)
(-0.818715 -0.21 2.17492e-05)
(-0.816196 -0.21 2.17492e-05)
(-0.813676 -0.21 2.17492e-05)
(-0.811157 -0.21 2.17492e-05)
(-0.808638 -0.21 2.17492e-05)
(-0.806119 -0.21 2.17492e-05)
(-0.8036 -0.21 2.17492e-05)
(-0.801081 -0.21 2.17492e-05)
(-0.798562 -0.21 2.17492e-05)
(-0.796043 -0.21 2.17492e-05)
(-0.793523 -0.21 2.17492e-05)
(-0.791004 -0.21 2.17492e-05)
(-0.788485 -0.21 2.17492e-05)
(-0.785966 -0.21 2.17492e-05)
(-0.783447 -0.21 2.17492e-05)
(-0.780928 -0.21 2.17492e-05)
(-0.778409 -0.21 2.17492e-05)
(-0.77589 -0.21 2.17492e-05)
(-0.77337 -0.21 2.17492e-05)
(-0.770851 -0.21 2.17492e-05)
(-0.768332 -0.21 2.17492e-05)
(-0.765813 -0.21 2.17492e-05)
(-0.763294 -0.21 2.17492e-05)
(-0.760775 -0.21 2.17492e-05)
(-0.758256 -0.21 2.17492e-05)
(-0.755737 -0.21 2.17492e-05)
(-0.753218 -0.21 2.17492e-05)
(-0.750698 -0.21 2.17492e-05)
(-0.748179 -0.21 2.17492e-05)
(-0.74566 -0.21 2.17492e-05)
(-0.743141 -0.21 2.17492e-05)
(-0.740622 -0.21 2.17492e-05)
(-0.738103 -0.21 2.17492e-05)
(-0.735584 -0.21 2.17492e-05)
(-0.733065 -0.21 2.17492e-05)
(-0.730545 -0.21 2.17492e-05)
(-0.728026 -0.21 2.17492e-05)
(-0.725507 -0.21 2.17492e-05)
(-0.722988 -0.21 2.17492e-05)
(-0.720469 -0.21 2.17492e-05)
(-0.71795 -0.21 2.17492e-05)
(-0.715431 -0.21 2.17492e-05)
(-0.712912 -0.21 2.17492e-05)
(-0.710392 -0.21 2.17492e-05)
(-0.707873 -0.21 2.17492e-05)
(-0.705354 -0.21 2.17492e-05)
(-0.702835 -0.21 2.17492e-05)
(-0.700316 -0.21 2.17492e-05)
(-0.697797 -0.21 2.17492e-05)
(-0.695278 -0.21 2.17492e-05)
(-0.692759 -0.21 2.17492e-05)
(-0.690239 -0.21 2.17492e-05)
(-0.68772 -0.21 2.17492e-05)
(-0.685201 -0.21 2.17492e-05)
(-0.682682 -0.21 2.17492e-05)
(-0.680163 -0.21 2.17492e-05)
(-0.677644 -0.21 2.17492e-05)
(-0.675125 -0.21 2.17492e-05)
(-0.672606 -0.21 2.17492e-05)
(-0.670086 -0.21 2.17492e-05)
(-0.667567 -0.21 2.17492e-05)
(-0.665048 -0.21 2.17492e-05)
(-0.662529 -0.21 2.17492e-05)
(-0.66001 -0.21 2.17492e-05)
(-0.657491 -0.21 2.17492e-05)
(-0.654972 -0.21 2.17492e-05)
(-0.652453 -0.21 2.17492e-05)
(-0.649934 -0.21 2.17492e-05)
(-0.647414 -0.21 2.17492e-05)
(-0.644895 -0.21 2.17492e-05)
(-0.642376 -0.21 2.17492e-05)
(-0.639857 -0.21 2.17492e-05)
(-0.637338 -0.21 2.17492e-05)
(-0.634819 -0.21 2.17492e-05)
(-0.6323 -0.21 2.17492e-05)
(-0.629781 -0.21 2.17492e-05)
(-0.627261 -0.21 2.17492e-05)
(-0.624742 -0.21 2.17492e-05)
(-0.622223 -0.21 2.17492e-05)
(-0.619704 -0.21 2.17492e-05)
(-0.617185 -0.21 2.17492e-05)
(-0.614666 -0.21 2.17492e-05)
(-0.612147 -0.21 2.17492e-05)
(-0.609628 -0.21 2.17492e-05)
(-0.607108 -0.21 2.17492e-05)
(-0.604589 -0.21 2.17492e-05)
(-0.60207 -0.21 2.17492e-05)
(-0.599551 -0.21 2.17492e-05)
(-0.597032 -0.21 2.17492e-05)
(-0.594513 -0.21 2.17492e-05)
(-0.591994 -0.21 2.17492e-05)
(-0.589475 -0.21 2.17492e-05)
(-0.586955 -0.21 2.17492e-05)
(-0.584436 -0.21 2.17492e-05)
(-0.581917 -0.21 2.17492e-05)
(-0.579398 -0.21 2.17492e-05)
(-0.576879 -0.21 2.17492e-05)
(-0.57436 -0.21 2.17492e-05)
(-0.571841 -0.21 2.17492e-05)
(-0.569322 -0.21 2.17492e-05)
(-0.566802 -0.21 2.17492e-05)
(-0.564283 -0.21 2.17492e-05)
(-0.561764 -0.21 2.17492e-05)
(-0.559245 -0.21 2.17492e-05)
(-0.556726 -0.21 2.17492e-05)
(-0.554207 -0.21 2.17492e-05)
(-0.551688 -0.21 2.17492e-05)
(-0.549169 -0.21 2.17492e-05)
(-0.54665 -0.21 2.17492e-05)
(-0.54413 -0.21 2.17492e-05)
(-0.541611 -0.21 2.17492e-05)
(-0.539092 -0.21 2.17492e-05)
(-0.536573 -0.21 2.17492e-05)
(-0.534054 -0.21 2.17492e-05)
(-0.531535 -0.21 2.17492e-05)
(-0.529016 -0.21 2.17492e-05)
(-0.526497 -0.21 2.17492e-05)
(-0.523977 -0.21 2.17492e-05)
(-0.521458 -0.21 2.17492e-05)
(-0.518939 -0.21 2.17492e-05)
(-0.51642 -0.21 2.17492e-05)
(-0.513901 -0.21 2.17492e-05)
(-0.511382 -0.21 2.17492e-05)
(-0.508863 -0.21 2.17492e-05)
(-0.506344 -0.21 2.17492e-05)
(-0.503824 -0.21 2.17492e-05)
(-0.501305 -0.21 2.17492e-05)
(-0.498786 -0.21 2.17492e-05)
(-0.496267 -0.21 2.17492e-05)
(-0.493748 -0.21 2.17492e-05)
(-0.491229 -0.21 2.17492e-05)
(-0.48871 -0.21 2.17492e-05)
(-0.486191 -0.21 2.17492e-05)
(-0.483671 -0.21 2.17492e-05)
(-0.481152 -0.21 2.17492e-05)
(-0.478633 -0.21 2.17492e-05)
(-0.476114 -0.21 2.17492e-05)
(-0.473595 -0.21 2.17492e-05)
(-0.471076 -0.21 2.17492e-05)
(-0.468557 -0.21 2.17492e-05)
(-0.466038 -0.21 2.17492e-05)
(-0.463518 -0.21 2.17492e-05)
(-0.460999 -0.21 2.17492e-05)
(-0.45848 -0.21 2.17492e-05)
(-0.455961 -0.21 2.17492e-05)
(-0.453442 -0.21 2.17492e-05)
(-0.450923 -0.21 2.17492e-05)
(-0.448404 -0.21 2.17492e-05)
(-0.445885 -0.21 2.17492e-05)
(-0.443365 -0.21 2.17492e-05)
(-0.440846 -0.21 2.17492e-05)
(-0.438327 -0.21 2.17492e-05)
(-0.435808 -0.21 2.17492e-05)
(-0.433289 -0.21 2.17492e-05)
(-0.43077 -0.21 2.17492e-05)
(-0.428251 -0.21 2.17492e-05)
(-0.425732 -0.21 2.17492e-05)
(-0.423213 -0.21 2.17492e-05)
(-0.420693 -0.21 2.17492e-05)
(-0.418174 -0.21 2.17492e-05)
(-0.415655 -0.21 2.17492e-05)
(-0.413136 -0.21 2.17492e-05)
(-0.410617 -0.21 2.17492e-05)
(-0.408098 -0.21 2.17492e-05)
(-0.405579 -0.21 2.17492e-05)
(-0.40306 -0.21 2.17492e-05)
(-0.40054 -0.21 2.17492e-05)
(-0.398021 -0.21 2.17492e-05)
(-0.395502 -0.21 2.17492e-05)
(-0.392983 -0.21 2.17492e-05)
(-0.390464 -0.21 2.17492e-05)
(-0.387945 -0.21 2.17492e-05)
(-0.385426 -0.21 2.17492e-05)
(-0.382907 -0.21 2.17492e-05)
(-0.380387 -0.21 2.17492e-05)
(-0.377868 -0.21 2.17492e-05)
(-0.375349 -0.21 2.17492e-05)
(-0.37283 -0.21 2.17492e-05)
(-0.370311 -0.21 2.17492e-05)
(-0.367792 -0.21 2.17492e-05)
(-0.365273 -0.21 2.17492e-05)
(-0.362754 -0.21 2.17492e-05)
(-0.360234 -0.21 2.17492e-05)
(-0.357715 -0.21 2.17492e-05)
(-0.355196 -0.21 2.17492e-05)
(-0.352677 -0.21 2.17492e-05)
(-0.350158 -0.21 2.17492e-05)
(-0.347639 -0.21 2.17492e-05)
(-0.34512 -0.21 2.17492e-05)
(-0.342601 -0.21 2.17492e-05)
(-0.340081 -0.21 2.17492e-05)
(-0.337562 -0.21 2.17492e-05)
(-0.335043 -0.21 2.17492e-05)
(-0.332524 -0.21 2.17492e-05)
(-0.330005 -0.21 2.17492e-05)
(-0.327486 -0.21 2.17492e-05)
(-0.324967 -0.21 2.17492e-05)
(-0.322448 -0.21 2.17492e-05)
(-0.319929 -0.21 2.17492e-05)
(-0.317409 -0.21 2.17492e-05)
(-0.31489 -0.21 2.17492e-05)
(-0.312371 -0.21 2.17492e-05)
(-0.309852 -0.21 2.17492e-05)
(-0.307333 -0.21 2.17492e-05)
(-0.304814 -0.21 2.17492e-05)
(-0.302295 -0.21 2.17492e-05)
(-0.299776 -0.21 2.17492e-05)
(-0.297256 -0.21 2.17492e-05)
(-0.294737 -0.21 2.17492e-05)
(-0.292218 -0.21 2.17492e-05)
(-0.289699 -0.21 2.17492e-05)
(-0.28718 -0.21 2.17492e-05)
(-0.284661 -0.21 2.17492e-05)
(-0.282142 -0.21 2.17492e-05)
(-0.279623 -0.21 2.17492e-05)
(-0.277103 -0.21 2.17492e-05)
(-0.274584 -0.21 2.17492e-05)
(-0.272065 -0.21 2.17492e-05)
(-0.269546 -0.21 2.17492e-05)
(-0.267027 -0.21 2.17492e-05)
(-0.264508 -0.21 2.17492e-05)
(-0.261989 -0.21 2.17492e-05)
(-0.25947 -0.21 2.17492e-05)
(-0.25695 -0.21 2.17492e-05)
(-0.254431 -0.21 2.17492e-05)
(-0.251912 -0.21 2.17463e-05)
(-0.249393 -0.21 2.17378e-05)
(-0.246875 -0.21 2.17265e-05)
(-0.244357 -0.21 2.17152e-05)
(-0.24184 -0.21 2.17039e-05)
(-0.239323 -0.21 2.16925e-05)
(-0.236806 -0.21 2.16812e-05)
(-0.23429 -0.21 2.16698e-05)
(-0.231775 -0.21 2.16585e-05)
(-0.22926 -0.21 2.16471e-05)
(-0.226746 -0.21 2.16358e-05)
(-0.224232 -0.21 2.16244e-05)
(-0.221718 -0.21 2.16131e-05)
(-0.219205 -0.21 2.16017e-05)
(-0.216693 -0.21 2.15904e-05)
(-0.214181 -0.21 2.15785e-05)
(-0.21167 -0.21 2.15655e-05)
(-0.209159 -0.21 2.15508e-05)
(-0.206649 -0.21 2.15346e-05)
(-0.204139 -0.21 2.15168e-05)
(-0.20163 -0.21 2.14975e-05)
(-0.199121 -0.21 2.14768e-05)
(-0.196613 -0.21 2.14546e-05)
(-0.194105 -0.21 2.14312e-05)
(-0.191598 -0.21 2.14065e-05)
(-0.189091 -0.21 2.13807e-05)
(-0.186585 -0.21 2.1354e-05)
(-0.18408 -0.21 2.13263e-05)
(-0.181575 -0.21 2.1298e-05)
(-0.179071 -0.21 2.12689e-05)
(-0.176567 -0.21 2.12393e-05)
(-0.174063 -0.21 2.12093e-05)
(-0.171561 -0.21 2.11791e-05)
(-0.169058 -0.21 2.11488e-05)
(-0.166557 -0.21 2.11185e-05)
(-0.164056 -0.21 2.10883e-05)
(-0.161555 -0.21 2.10585e-05)
(-0.159055 -0.21 2.10291e-05)
(-0.156555 -0.21 2.10003e-05)
(-0.154057 -0.21 2.09721e-05)
(-0.151558 -0.21 2.09448e-05)
(-0.149061 -0.21 2.09184e-05)
(-0.146563 -0.21 2.0893e-05)
(-0.144067 -0.21 2.08688e-05)
(-0.141571 -0.21 2.08457e-05)
(-0.139075 -0.21 2.0824e-05)
(-0.13658 -0.21 2.08037e-05)
(-0.134086 -0.21 2.07848e-05)
(-0.131592 -0.21 2.07674e-05)
(-0.129099 -0.21 2.07515e-05)
(-0.126607 -0.21 2.07372e-05)
(-0.124115 -0.21 2.07244e-05)
(-0.121623 -0.21 2.07128e-05)
(-0.119132 -0.21 2.07015e-05)
(-0.116642 -0.21 2.06903e-05)
(-0.114153 -0.21 2.06791e-05)
(-0.111664 -0.21 2.06679e-05)
(-0.109175 -0.21 2.06567e-05)
(-0.106687 -0.21 2.06454e-05)
(-0.1042 -0.21 2.06342e-05)
(-0.101714 -0.21 2.0623e-05)
(-0.0992277 -0.21 2.06118e-05)
(-0.0967423 -0.21 2.06005e-05)
(-0.0942576 -0.21 2.05893e-05)
(-0.0917734 -0.21 2.05781e-05)
(-0.0892899 -0.21 2.05668e-05)
(-0.086807 -0.21 2.05556e-05)
(-0.0843247 -0.21 2.05444e-05)
(-0.081843 -0.21 2.05331e-05)
(-0.0793619 -0.21 2.05219e-05)
(-0.0768815 -0.21 2.05106e-05)
(-0.0744017 -0.21 2.04994e-05)
(-0.0719225 -0.21 2.04882e-05)
(-0.069444 -0.21 2.04769e-05)
(-0.066966 -0.21 2.04657e-05)
(-0.0644888 -0.21 2.04544e-05)
(-0.0620121 -0.21 2.04431e-05)
(-0.0595361 -0.21 2.04319e-05)
(-0.0570607 -0.21 2.04206e-05)
(-0.054586 -0.21 2.04094e-05)
(-0.0521119 -0.21 2.03981e-05)
(-0.0496384 -0.21 2.03868e-05)
(-0.0471656 -0.21 2.03756e-05)
(-0.0446935 -0.21 2.03643e-05)
(-0.042222 -0.21 2.0353e-05)
(-0.0397511 -0.21 2.03418e-05)
(-0.0372809 -0.21 2.03305e-05)
(-0.0348114 -0.21 2.03192e-05)
(-0.0323425 -0.21 2.0308e-05)
(-0.0298743 -0.21 2.02967e-05)
(-0.0274067 -0.21 2.02854e-05)
(-0.0249398 -0.21 2.02741e-05)
(-0.0224736 -0.21 2.02628e-05)
(-0.020008 -0.21 2.02516e-05)
(-0.0175431 -0.21 2.02403e-05)
(-0.0150789 -0.21 2.0229e-05)
(-0.0126153 -0.21 2.02177e-05)
(-0.0101524 -0.21 2.02064e-05)
(-0.00769022 -0.21 2.01951e-05)
(-0.00522869 -0.21 2.01838e-05)
(-0.00276784 -0.21 2.01725e-05)
(-0.00030949 -0.21 6.1376e-05)
(0.00213798 -0.21 0.000261393)
(0.00456539 -0.21 0.000649957)
(0.00696582 -0.21 0.00118018)
(0.00933115 -0.21 0.00184995)
(0.0116558 -0.21 0.00265017)
(0.0139378 -0.21 0.0035658)
(0.0161772 -0.21 0.00458162)
(0.0183763 -0.21 0.00568241)
(0.0205396 -0.21 0.00685228)
(0.0226725 -0.21 0.00807707)
(0.0247799 -0.21 0.00934528)
(0.0268681 -0.21 0.0106451)
(0.0289446 -0.21 0.0119637)
(0.0310155 -0.21 0.0132909)
(0.0330857 -0.21 0.0146193)
(0.035161 -0.21 0.0159398)
(0.0372472 -0.21 0.0172429)
(0.0393472 -0.21 0.0185236)
(0.0414634 -0.21 0.0197772)
(0.0436058 -0.21 0.0209853)
(0.0457819 -0.21 0.0221312)
(0.0479833 -0.21 0.0232285)
(0.0502004 -0.21 0.0242938)
(0.0524327 -0.21 0.0253266)
(0.0546797 -0.21 0.0263272)
(0.0569394 -0.21 0.0272988)
(0.0592114 -0.21 0.0282413)
(0.0614947 -0.21 0.0291561)
(0.0637839 -0.21 0.0300562)
(0.0660762 -0.21 0.0309482)
(0.0683748 -0.21 0.0318239)
(0.0706838 -0.21 0.0326718)
(0.0730048 -0.21 0.0334861)
(0.0753363 -0.21 0.0342699)
(0.0776761 -0.21 0.0350287)
(0.0800232 -0.21 0.0357645)
(0.0823778 -0.21 0.0364761)
(0.0847396 -0.21 0.0371633)
(0.0871081 -0.21 0.0378271)
(0.0894826 -0.21 0.0384691)
(0.0918627 -0.21 0.0390902)
(0.094248 -0.21 0.0396907)
(0.0966382 -0.21 0.0402718)
(0.0990326 -0.21 0.040835)
(0.101431 -0.21 0.0413815)
(0.103833 -0.21 0.0419122)
(0.106238 -0.21 0.0424278)
(0.108646 -0.21 0.0429287)
(0.111057 -0.21 0.0434155)
(0.113471 -0.21 0.0438886)
(0.115888 -0.21 0.0443486)
(0.118306 -0.21 0.0447959)
(0.120727 -0.21 0.0452309)
(0.12315 -0.21 0.0456539)
(0.125576 -0.21 0.0460653)
(0.128003 -0.21 0.0464656)
(0.130431 -0.21 0.0468555)
(0.132862 -0.21 0.0472354)
(0.135293 -0.21 0.0476055)
(0.137727 -0.21 0.0479652)
(0.140162 -0.21 0.048314)
(0.142598 -0.21 0.048652)
(0.145036 -0.21 0.0489798)
(0.147475 -0.21 0.0492975)
(0.149916 -0.21 0.0496047)
(0.152358 -0.21 0.0499008)
(0.154801 -0.21 0.0501863)
(0.157245 -0.21 0.0504618)
(0.159691 -0.21 0.050727)
(0.162137 -0.21 0.0509812)
(0.164585 -0.21 0.0512242)
(0.167034 -0.21 0.0514567)
(0.169483 -0.21 0.0516792)
(0.171934 -0.21 0.0518911)
(0.174386 -0.21 0.0520916)
(0.176838 -0.21 0.0522811)
(0.179291 -0.21 0.0524605)
(0.181745 -0.21 0.0526295)
(0.1842 -0.21 0.0527869)
(0.186656 -0.21 0.0529321)
(0.189112 -0.21 0.0530661)
(0.191568 -0.21 0.0531901)
(0.194026 -0.21 0.0533035)
(0.196483 -0.21 0.0534044)
(0.198942 -0.21 0.0534921)
(0.2014 -0.21 0.0535674)
(0.203859 -0.21 0.0536309)
(0.206318 -0.21 0.0536827)
(0.208778 -0.21 0.0537225)
(0.211238 -0.21 0.0537503)
(0.213697 -0.21 0.0537655)
(0.216157 -0.21 0.0537678)
(0.218617 -0.21 0.0537567)
(0.221077 -0.21 0.053732)
(0.223536 -0.21 0.053694)
(0.225995 -0.21 0.0536429)
(0.228454 -0.21 0.0535777)
(0.230913 -0.21 0.0534967)
(0.233371 -0.21 0.0533997)
(0.235828 -0.21 0.0532875)
(0.238284 -0.21 0.05316)
(0.24074 -0.21 0.053015)
(0.243194 -0.21 0.0528504)
(0.245647 -0.21 0.0526655)
(0.248098 -0.21 0.0524602)
(0.250547 -0.21 0.052234)
(0.252995 -0.21 0.0519858)
(0.255439 -0.21 0.0517146)
(0.257881 -0.21 0.0514191)
(0.26032 -0.21 0.0510968)
(0.262754 -0.21 0.0507429)
(0.265183 -0.21 0.0503522)
(0.267605 -0.21 0.0499231)
(0.270019 -0.21 0.0494548)
(0.272421 -0.21 0.0489254)
(0.274793 -0.21 0.0482794)
(0.277115 -0.21 0.0474768)
(0.279359 -0.21 0.0464786)
(0.281496 -0.21 0.0452677)
(0.283537 -0.21 0.0438978)
(0.285507 -0.21 0.0424252)
(0.287425 -0.21 0.0408865)
(0.289314 -0.21 0.0393105)
(0.291188 -0.21 0.0377168)
(0.293059 -0.21 0.036121)
(0.294942 -0.21 0.0345378)
(0.296835 -0.21 0.032968)
(0.298736 -0.21 0.0314065)
(0.300648 -0.21 0.0298592)
(0.302581 -0.21 0.0283386)
(0.304541 -0.21 0.0268521)
(0.306526 -0.21 0.0254)
(0.308536 -0.21 0.023982)
(0.310571 -0.21 0.0226017)
(0.312636 -0.21 0.0212644)
(0.314729 -0.21 0.0199739)
(0.316853 -0.21 0.0187326)
(0.319005 -0.21 0.0175428)
(0.321186 -0.21 0.0164063)
(0.323395 -0.21 0.0153251)
(0.325631 -0.21 0.0143003)
(0.327892 -0.21 0.0133323)
(0.330176 -0.21 0.0124201)
(0.332481 -0.21 0.0115612)
(0.334804 -0.21 0.0107527)
(0.337143 -0.21 0.0099934)
(0.339498 -0.21 0.00928144)
(0.341865 -0.21 0.00861304)
(0.344243 -0.21 0.00798447)
(0.34663 -0.21 0.00739362)
(0.349027 -0.21 0.00683839)
(0.35143 -0.21 0.00631579)
(0.35384 -0.21 0.00582221)
(0.356255 -0.21 0.00535406)
(0.358674 -0.21 0.00490902)
(0.361097 -0.21 0.00448578)
(0.363523 -0.21 0.00408303)
(0.365953 -0.21 0.00369918)
(0.368385 -0.21 0.00333228)
(0.37082 -0.21 0.00298071)
(0.373256 -0.21 0.0026437)
(0.375695 -0.21 0.00232167)
(0.378136 -0.21 0.00201566)
(0.380578 -0.21 0.00172599)
(0.383023 -0.21 0.00145328)
(0.38547 -0.21 0.00120013)
(0.387918 -0.21 0.000969956)
(0.39037 -0.21 0.000765744)
(0.392823 -0.21 0.000590215)
(0.395279 -0.21 0.000445671)
(0.397736 -0.21 0.000332921)
(0.400194 -0.21 0.000250982)
(0.402653 -0.21 0.000197274)
(0.405113 -0.21 0.000165014)
(0.407573 -0.21 0.000142003)
(0.410032 -0.21 0.000119636)
(0.412492 -0.21 9.69449e-05)
(0.414952 -0.21 7.12746e-05)
(0.417411 -0.21 4.1735e-05)
(0.419871 -0.21 2.33589e-05)
(0.422331 -0.21 2.01598e-05)
(0.42479 -0.21 2.01598e-05)
(0.42725 -0.21 2.01598e-05)
(0.42971 -0.21 2.01598e-05)
(0.43217 -0.21 2.01598e-05)
(0.43463 -0.21 2.01598e-05)
(0.437089 -0.21 2.01598e-05)
(0.439549 -0.21 2.01598e-05)
(0.442009 -0.21 2.01598e-05)
(0.444469 -0.21 2.01598e-05)
(0.446929 -0.21 2.01598e-05)
(0.449388 -0.21 2.01598e-05)
(0.451848 -0.21 2.01598e-05)
(0.454308 -0.21 2.01598e-05)
(0.456768 -0.21 2.01598e-05)
(0.459228 -0.21 2.01598e-05)
(0.461687 -0.21 2.01598e-05)
(0.464147 -0.21 2.01598e-05)
(0.466607 -0.21 2.01598e-05)
(0.469067 -0.21 2.01598e-05)
(0.471527 -0.21 2.01598e-05)
(0.473986 -0.21 2.01598e-05)
(0.476446 -0.21 2.01598e-05)
(0.478906 -0.21 2.01598e-05)
(0.481366 -0.21 2.01598e-05)
(0.483826 -0.21 2.01598e-05)
(0.486285 -0.21 2.01598e-05)
(0.488745 -0.21 2.01598e-05)
(0.491205 -0.21 2.01598e-05)
(0.493665 -0.21 2.01598e-05)
(0.496125 -0.21 2.01598e-05)
(0.498584 -0.21 2.01598e-05)
(0.501044 -0.21 2.01598e-05)
(0.503504 -0.21 2.01598e-05)
(0.505964 -0.21 2.01598e-05)
(0.508424 -0.21 2.01598e-05)
(0.510883 -0.21 2.01598e-05)
(0.513343 -0.21 2.01598e-05)
(0.515803 -0.21 2.01598e-05)
(0.518263 -0.21 2.01598e-05)
(0.520723 -0.21 2.01598e-05)
(0.523182 -0.21 2.01598e-05)
(0.525642 -0.21 2.01598e-05)
(0.528102 -0.21 2.01598e-05)
(0.530562 -0.21 2.01598e-05)
(0.533021 -0.21 2.01598e-05)
(0.535481 -0.21 2.01598e-05)
(0.537941 -0.21 2.01598e-05)
(0.540401 -0.21 2.01598e-05)
(0.542861 -0.21 2.01598e-05)
(0.54532 -0.21 2.01598e-05)
(0.54778 -0.21 2.01598e-05)
(0.55024 -0.21 2.01598e-05)
(0.5527 -0.21 2.01598e-05)
(0.55516 -0.21 2.01598e-05)
(0.557619 -0.21 2.01598e-05)
(0.560079 -0.21 2.01598e-05)
(0.562539 -0.21 2.01598e-05)
(0.564999 -0.21 2.01598e-05)
(0.567459 -0.21 2.01598e-05)
(0.569918 -0.21 2.01598e-05)
(0.572378 -0.21 2.01598e-05)
(0.574838 -0.21 2.01598e-05)
(0.577298 -0.21 2.01598e-05)
(0.579758 -0.21 2.01598e-05)
(0.582217 -0.21 2.01598e-05)
(0.584677 -0.21 2.01598e-05)
(0.587137 -0.21 2.01598e-05)
(0.589597 -0.21 2.01598e-05)
(0.592057 -0.21 2.01598e-05)
(0.594516 -0.21 2.01598e-05)
(0.596976 -0.21 2.01598e-05)
(0.599436 -0.21 2.01598e-05)
(0.601896 -0.21 2.01598e-05)
(0.604356 -0.21 2.01598e-05)
(0.606815 -0.21 2.01598e-05)
(0.609275 -0.21 2.01598e-05)
(0.611735 -0.21 2.01598e-05)
(0.614195 -0.21 2.01598e-05)
(0.616655 -0.21 2.01598e-05)
(0.619114 -0.21 2.01598e-05)
(0.621574 -0.21 2.01598e-05)
(0.624034 -0.21 2.01598e-05)
(0.626494 -0.21 2.01598e-05)
(0.628954 -0.21 2.01598e-05)
(0.631413 -0.21 2.01598e-05)
(0.633873 -0.21 2.01598e-05)
(0.636333 -0.21 2.01598e-05)
(0.638793 -0.21 2.01598e-05)
(0.641253 -0.21 2.01598e-05)
(0.643712 -0.21 2.01598e-05)
(0.646172 -0.21 2.01598e-05)
(0.648632 -0.21 2.01606e-05)
(0.651092 -0.21 2.0165e-05)
(0.653552 -0.21 2.01755e-05)
(0.656012 -0.21 2.01928e-05)
(0.658471 -0.21 2.02165e-05)
(0.660931 -0.21 2.02457e-05)
(0.663391 -0.21 2.02793e-05)
(0.665851 -0.21 2.0316e-05)
(0.668311 -0.21 2.03546e-05)
(0.67077 -0.21 2.03941e-05)
(-0.850519 -0.21 6.73557e-05)
(-0.848944 -0.21 6.73557e-05)
(-0.846425 -0.21 6.73557e-05)
(-0.843906 -0.21 6.73557e-05)
(-0.841387 -0.21 6.73557e-05)
(-0.838868 -0.21 6.73557e-05)
(-0.836349 -0.21 6.73557e-05)
(-0.833829 -0.21 6.73557e-05)
(-0.83131 -0.21 6.73557e-05)
(-0.828791 -0.21 6.73557e-05)
(-0.826272 -0.21 6.73557e-05)
(-0.823753 -0.21 6.73557e-05)
(-0.821234 -0.21 6.73557e-05)
(-0.818715 -0.21 6.73557e-05)
(-0.816196 -0.21 6.73557e-05)
(-0.813676 -0.21 6.73557e-05)
(-0.811157 -0.21 6.73557e-05)
(-0.808638 -0.21 6.73557e-05)
(-0.806119 -0.21 6.73557e-05)
(-0.8036 -0.21 6.73557e-05)
(-0.801081 -0.21 6.73557e-05)
(-0.798562 -0.21 6.73557e-05)
(-0.796043 -0.21 6.73557e-05)
(-0.793523 -0.21 6.73557e-05)
(-0.791004 -0.21 6.73557e-05)
(-0.788485 -0.21 6.73557e-05)
(-0.785966 -0.21 6.73557e-05)
(-0.783447 -0.21 6.73557e-05)
(-0.780928 -0.21 6.73557e-05)
(-0.778409 -0.21 6.73557e-05)
(-0.77589 -0.21 6.73557e-05)
(-0.77337 -0.21 6.73557e-05)
(-0.770851 -0.21 6.73557e-05)
(-0.768332 -0.21 6.73557e-05)
(-0.765813 -0.21 6.73557e-05)
(-0.763294 -0.21 6.73557e-05)
(-0.760775 -0.21 6.73557e-05)
(-0.758256 -0.21 6.73557e-05)
(-0.755737 -0.21 6.73557e-05)
(-0.753218 -0.21 6.73557e-05)
(-0.750698 -0.21 6.73557e-05)
(-0.748179 -0.21 6.73557e-05)
(-0.74566 -0.21 6.73557e-05)
(-0.743141 -0.21 6.73557e-05)
(-0.740622 -0.21 6.73557e-05)
(-0.738103 -0.21 6.73557e-05)
(-0.735584 -0.21 6.73557e-05)
(-0.733065 -0.21 6.73557e-05)
(-0.730545 -0.21 6.73557e-05)
(-0.728026 -0.21 6.73557e-05)
(-0.725507 -0.21 6.73557e-05)
(-0.722988 -0.21 6.73557e-05)
(-0.720469 -0.21 6.73557e-05)
(-0.71795 -0.21 6.73557e-05)
(-0.715431 -0.21 6.73557e-05)
(-0.712912 -0.21 6.73557e-05)
(-0.710392 -0.21 6.73557e-05)
(-0.707873 -0.21 6.73557e-05)
(-0.705354 -0.21 6.73557e-05)
(-0.702835 -0.21 6.73557e-05)
(-0.700316 -0.21 6.73557e-05)
(-0.697797 -0.21 6.73557e-05)
(-0.695278 -0.21 6.73557e-05)
(-0.692759 -0.21 6.73557e-05)
(-0.690239 -0.21 6.73557e-05)
(-0.68772 -0.21 6.73557e-05)
(-0.685201 -0.21 6.73557e-05)
(-0.682682 -0.21 6.73557e-05)
(-0.680163 -0.21 6.73557e-05)
(-0.677644 -0.21 6.73557e-05)
(-0.675125 -0.21 6.73557e-05)
(-0.672606 -0.21 6.73557e-05)
(-0.670086 -0.21 6.73557e-05)
(-0.667567 -0.21 6.73557e-05)
(-0.665048 -0.21 6.73557e-05)
(-0.662529 -0.21 6.73557e-05)
(-0.66001 -0.21 6.73557e-05)
(-0.657491 -0.21 6.73557e-05)
(-0.654972 -0.21 6.73557e-05)
(-0.652453 -0.21 6.73557e-05)
(-0.649934 -0.21 6.73557e-05)
(-0.647414 -0.21 6.73557e-05)
(-0.644895 -0.21 6.73557e-05)
(-0.642376 -0.21 6.73557e-05)
(-0.639857 -0.21 6.73557e-05)
(-0.637338 -0.21 6.73557e-05)
(-0.634819 -0.21 6.73557e-05)
(-0.6323 -0.21 6.73557e-05)
(-0.629781 -0.21 6.73557e-05)
(-0.627261 -0.21 6.73557e-05)
(-0.624742 -0.21 6.73557e-05)
(-0.622223 -0.21 6.73557e-05)
(-0.619704 -0.21 6.73557e-05)
(-0.617185 -0.21 6.73557e-05)
(-0.614666 -0.21 6.73557e-05)
(-0.612147 -0.21 6.73557e-05)
(-0.609628 -0.21 6.73557e-05)
(-0.607108 -0.21 6.73557e-05)
(-0.604589 -0.21 6.73557e-05)
(-0.60207 -0.21 6.73557e-05)
(-0.599551 -0.21 6.73557e-05)
(-0.597032 -0.21 6.73557e-05)
(-0.594513 -0.21 6.73557e-05)
(-0.591994 -0.21 6.73557e-05)
(-0.589475 -0.21 6.73557e-05)
(-0.586955 -0.21 6.73557e-05)
(-0.584436 -0.21 6.73557e-05)
(-0.581917 -0.21 6.73557e-05)
(-0.579398 -0.21 6.73557e-05)
(-0.576879 -0.21 6.73557e-05)
(-0.57436 -0.21 6.73557e-05)
(-0.571841 -0.21 6.73557e-05)
(-0.569322 -0.21 6.73557e-05)
(-0.566802 -0.21 6.73557e-05)
(-0.564283 -0.21 6.73557e-05)
(-0.561764 -0.21 6.73557e-05)
(-0.559245 -0.21 6.73557e-05)
(-0.556726 -0.21 6.73557e-05)
(-0.554207 -0.21 6.73557e-05)
(-0.551688 -0.21 6.73557e-05)
(-0.549169 -0.21 6.73557e-05)
(-0.54665 -0.21 6.73557e-05)
(-0.54413 -0.21 6.73557e-05)
(-0.541611 -0.21 6.73557e-05)
(-0.539092 -0.21 6.73557e-05)
(-0.536573 -0.21 6.73557e-05)
(-0.534054 -0.21 6.73557e-05)
(-0.531535 -0.21 6.73557e-05)
(-0.529016 -0.21 6.73557e-05)
(-0.526497 -0.21 6.73557e-05)
(-0.523977 -0.21 6.73557e-05)
(-0.521458 -0.21 6.73557e-05)
(-0.518939 -0.21 6.73557e-05)
(-0.51642 -0.21 6.73557e-05)
(-0.513901 -0.21 6.73557e-05)
(-0.511382 -0.21 6.73557e-05)
(-0.508863 -0.21 6.73557e-05)
(-0.506344 -0.21 6.73557e-05)
(-0.503824 -0.21 6.73557e-05)
(-0.501305 -0.21 6.73557e-05)
(-0.498786 -0.21 6.73557e-05)
(-0.496267 -0.21 6.73557e-05)
(-0.493748 -0.21 6.73557e-05)
(-0.491229 -0.21 6.73557e-05)
(-0.48871 -0.21 6.73557e-05)
(-0.486191 -0.21 6.73557e-05)
(-0.483671 -0.21 6.73557e-05)
(-0.481152 -0.21 6.73557e-05)
(-0.478633 -0.21 6.73557e-05)
(-0.476114 -0.21 6.73557e-05)
(-0.473595 -0.21 6.73557e-05)
(-0.471076 -0.21 6.73557e-05)
(-0.468557 -0.21 6.73557e-05)
(-0.466038 -0.21 6.73557e-05)
(-0.463518 -0.21 6.73557e-05)
(-0.460999 -0.21 6.73557e-05)
(-0.45848 -0.21 6.73557e-05)
(-0.455961 -0.21 6.73557e-05)
(-0.453442 -0.21 6.73557e-05)
(-0.450923 -0.21 6.73557e-05)
(-0.448404 -0.21 6.73557e-05)
(-0.445885 -0.21 6.73557e-05)
(-0.443365 -0.21 6.73557e-05)
(-0.440846 -0.21 6.73557e-05)
(-0.438327 -0.21 6.73557e-05)
(-0.435808 -0.21 6.73557e-05)
(-0.433289 -0.21 6.73557e-05)
(-0.43077 -0.21 6.73557e-05)
(-0.428251 -0.21 6.73557e-05)
(-0.425732 -0.21 6.73557e-05)
(-0.423213 -0.21 6.73557e-05)
(-0.420693 -0.21 6.73557e-05)
(-0.418174 -0.21 6.73557e-05)
(-0.415655 -0.21 6.73557e-05)
(-0.413136 -0.21 6.73557e-05)
(-0.410617 -0.21 6.73557e-05)
(-0.408098 -0.21 6.73557e-05)
(-0.405579 -0.21 6.73557e-05)
(-0.40306 -0.21 6.73557e-05)
(-0.40054 -0.21 6.73557e-05)
(-0.398021 -0.21 6.73557e-05)
(-0.395502 -0.21 6.73557e-05)
(-0.392983 -0.21 6.73557e-05)
(-0.390464 -0.21 6.73557e-05)
(-0.387945 -0.21 6.73557e-05)
(-0.385426 -0.21 6.73557e-05)
(-0.382907 -0.21 6.73557e-05)
(-0.380387 -0.21 6.73557e-05)
(-0.377868 -0.21 6.73557e-05)
(-0.375349 -0.21 6.73557e-05)
(-0.37283 -0.21 6.73557e-05)
(-0.370311 -0.21 6.73557e-05)
(-0.367792 -0.21 6.73557e-05)
(-0.365273 -0.21 6.73557e-05)
(-0.362754 -0.21 6.73557e-05)
(-0.360234 -0.21 6.73557e-05)
(-0.357715 -0.21 6.73557e-05)
(-0.355196 -0.21 6.73557e-05)
(-0.352677 -0.21 6.73557e-05)
(-0.350158 -0.21 6.73557e-05)
(-0.347639 -0.21 6.73557e-05)
(-0.34512 -0.21 6.73557e-05)
(-0.342601 -0.21 6.73557e-05)
(-0.340081 -0.21 6.73557e-05)
(-0.337562 -0.21 6.73557e-05)
(-0.335043 -0.21 6.73557e-05)
(-0.332524 -0.21 6.73557e-05)
(-0.330005 -0.21 6.73557e-05)
(-0.327486 -0.21 6.73557e-05)
(-0.324967 -0.21 6.73557e-05)
(-0.322448 -0.21 6.73557e-05)
(-0.319929 -0.21 6.73557e-05)
(-0.317409 -0.21 6.73557e-05)
(-0.31489 -0.21 6.73557e-05)
(-0.312371 -0.21 6.73557e-05)
(-0.309852 -0.21 6.73557e-05)
(-0.307333 -0.21 6.73557e-05)
(-0.304814 -0.21 6.73557e-05)
(-0.302295 -0.21 6.73557e-05)
(-0.299776 -0.21 6.73557e-05)
(-0.297256 -0.21 6.73557e-05)
(-0.294737 -0.21 6.73557e-05)
(-0.292218 -0.21 6.73557e-05)
(-0.289699 -0.21 6.73557e-05)
(-0.28718 -0.21 6.73557e-05)
(-0.284661 -0.21 6.73557e-05)
(-0.282142 -0.21 6.73557e-05)
(-0.279623 -0.21 6.73557e-05)
(-0.277103 -0.21 6.73557e-05)
(-0.274584 -0.21 6.73557e-05)
(-0.272065 -0.21 6.73557e-05)
(-0.269546 -0.21 6.73557e-05)
(-0.267027 -0.21 6.73557e-05)
(-0.264508 -0.21 6.73557e-05)
(-0.261989 -0.21 6.73557e-05)
(-0.25947 -0.21 6.73557e-05)
(-0.25695 -0.21 6.73557e-05)
(-0.254431 -0.21 6.73557e-05)
(-0.251912 -0.21 6.7342e-05)
(-0.249394 -0.21 6.73011e-05)
(-0.246875 -0.21 6.72464e-05)
(-0.244357 -0.21 6.71918e-05)
(-0.24184 -0.21 6.71371e-05)
(-0.239323 -0.21 6.70824e-05)
(-0.236807 -0.21 6.70278e-05)
(-0.234291 -0.21 6.6973e-05)
(-0.231775 -0.21 6.69183e-05)
(-0.22926 -0.21 6.68636e-05)
(-0.226746 -0.21 6.68089e-05)
(-0.224232 -0.21 6.67541e-05)
(-0.221718 -0.21 6.66994e-05)
(-0.219206 -0.21 6.66446e-05)
(-0.216693 -0.21 6.65898e-05)
(-0.214181 -0.21 6.65336e-05)
(-0.21167 -0.21 6.64736e-05)
(-0.209159 -0.21 6.64086e-05)
(-0.206649 -0.21 6.63388e-05)
(-0.204139 -0.21 6.62643e-05)
(-0.20163 -0.21 6.61851e-05)
(-0.199121 -0.21 6.61015e-05)
(-0.196613 -0.21 6.60134e-05)
(-0.194105 -0.21 6.59214e-05)
(-0.191598 -0.21 6.58258e-05)
(-0.189092 -0.21 6.57267e-05)
(-0.186586 -0.21 6.56246e-05)
(-0.18408 -0.21 6.55199e-05)
(-0.181575 -0.21 6.54129e-05)
(-0.179071 -0.21 6.53038e-05)
(-0.176567 -0.21 6.51932e-05)
(-0.174064 -0.21 6.50813e-05)
(-0.171561 -0.21 6.49688e-05)
(-0.169058 -0.21 6.48559e-05)
(-0.166557 -0.21 6.47432e-05)
(-0.164056 -0.21 6.4631e-05)
(-0.161555 -0.21 6.45198e-05)
(-0.159055 -0.21 6.441e-05)
(-0.156556 -0.21 6.4302e-05)
(-0.154057 -0.21 6.41959e-05)
(-0.151558 -0.21 6.40924e-05)
(-0.149061 -0.21 6.3992e-05)
(-0.146564 -0.21 6.38945e-05)
(-0.144067 -0.21 6.38006e-05)
(-0.141571 -0.21 6.37104e-05)
(-0.139075 -0.21 6.36242e-05)
(-0.136581 -0.21 6.35423e-05)
(-0.134086 -0.21 6.34648e-05)
(-0.131592 -0.21 6.33918e-05)
(-0.129099 -0.21 6.33235e-05)
(-0.126607 -0.21 6.326e-05)
(-0.124115 -0.21 6.32011e-05)
(-0.121623 -0.21 6.31458e-05)
(-0.119133 -0.21 6.30916e-05)
(-0.116642 -0.21 6.30375e-05)
(-0.114153 -0.21 6.29835e-05)
(-0.111664 -0.21 6.29294e-05)
(-0.109175 -0.21 6.28753e-05)
(-0.106688 -0.21 6.28212e-05)
(-0.1042 -0.21 6.27671e-05)
(-0.101714 -0.21 6.27129e-05)
(-0.0992279 -0.21 6.26588e-05)
(-0.0967425 -0.21 6.26047e-05)
(-0.0942578 -0.21 6.25505e-05)
(-0.0917736 -0.21 6.24964e-05)
(-0.0892901 -0.21 6.24422e-05)
(-0.0868072 -0.21 6.2388e-05)
(-0.0843249 -0.21 6.23338e-05)
(-0.0818432 -0.21 6.22796e-05)
(-0.0793621 -0.21 6.22254e-05)
(-0.0768817 -0.21 6.21712e-05)
(-0.0744019 -0.21 6.2117e-05)
(-0.0719227 -0.21 6.20627e-05)
(-0.0694442 -0.21 6.20085e-05)
(-0.0669662 -0.21 6.19542e-05)
(-0.0644889 -0.21 6.19e-05)
(-0.0620123 -0.21 6.18457e-05)
(-0.0595363 -0.21 6.17914e-05)
(-0.0570609 -0.21 6.17371e-05)
(-0.0545862 -0.21 6.16828e-05)
(-0.0521121 -0.21 6.16285e-05)
(-0.0496386 -0.21 6.15742e-05)
(-0.0471658 -0.21 6.15199e-05)
(-0.0446937 -0.21 6.14656e-05)
(-0.0422222 -0.21 6.14112e-05)
(-0.0397513 -0.21 6.13569e-05)
(-0.0372811 -0.21 6.13025e-05)
(-0.0348116 -0.21 6.12482e-05)
(-0.0323427 -0.21 6.11938e-05)
(-0.0298745 -0.21 6.11394e-05)
(-0.0274069 -0.21 6.10851e-05)
(-0.02494 -0.21 6.10307e-05)
(-0.0224738 -0.21 6.09763e-05)
(-0.0200082 -0.21 6.09218e-05)
(-0.0175433 -0.21 6.08674e-05)
(-0.0150791 -0.21 6.0813e-05)
(-0.0126155 -0.21 6.07586e-05)
(-0.0101526 -0.21 6.07041e-05)
(-0.00769042 -0.21 6.06497e-05)
(-0.0052289 -0.21 6.05952e-05)
(-0.00276805 -0.21 6.05408e-05)
(-0.00030962 -0.21 0.000101701)
(0.00213798 -0.21 0.000301689)
(0.00456539 -0.21 0.000690214)
(0.00696582 -0.21 0.00122038)
(0.00933115 -0.21 0.00189008)
(0.0116558 -0.21 0.00269022)
(0.0139378 -0.21 0.00360575)
(0.0161772 -0.21 0.00462147)
(0.0183763 -0.21 0.00572214)
(0.0205396 -0.21 0.00689188)
(0.0226725 -0.21 0.00811655)
(0.0247799 -0.21 0.00938462)
(0.0268681 -0.21 0.0106843)
(0.0289446 -0.21 0.0120027)
(0.0310155 -0.21 0.0133298)
(0.0330857 -0.21 0.0146581)
(0.035161 -0.21 0.0159785)
(0.0372472 -0.21 0.0172814)
(0.0393472 -0.21 0.0185619)
(0.0414634 -0.21 0.0198154)
(0.0436058 -0.21 0.0210234)
(0.0457819 -0.21 0.0221692)
(0.0479833 -0.21 0.0232664)
(0.0502004 -0.21 0.0243315)
(0.0524327 -0.21 0.0253643)
(0.0546797 -0.21 0.0263647)
(0.0569394 -0.21 0.0273363)
(0.0592114 -0.21 0.0282786)
(0.0614947 -0.21 0.0291934)
(0.0637839 -0.21 0.0300934)
(0.0660762 -0.21 0.0309853)
(0.0683748 -0.21 0.0318608)
(0.0706838 -0.21 0.0327087)
(0.0730048 -0.21 0.0335229)
(0.0753363 -0.21 0.0343066)
(0.0776761 -0.21 0.0350654)
(0.0800232 -0.21 0.0358011)