# p  FACE_DATA 622
#  x  y  z  p
-0.850519 -0.21 -6.53423e-18 6.80609
-0.848944 -0.21 -6.53423e-18 7.31301
-0.846425 -0.21 -6.53423e-18 6.78159
-0.843906 -0.21 -6.53423e-18 6.62505
-0.841387 -0.21 -6.53423e-18 6.54475
-0.838868 -0.21 -6.53423e-18 6.47923
-0.836349 -0.21 -6.53423e-18 6.44662
-0.833829 -0.21 -6.53423e-18 6.43403
-0.83131 -0.21 -6.53423e-18 6.43166
-0.828791 -0.21 -6.53423e-18 6.43495
-0.826272 -0.21 -6.53423e-18 6.44021
-0.823753 -0.21 -6.53423e-18 6.44512
-0.821234 -0.21 -6.53423e-18 6.44856
-0.818715 -0.21 -6.53423e-18 6.45011
-0.816196 -0.21 -6.53423e-18 6.4497
-0.813676 -0.21 -6.53423e-18 6.44745
-0.811157 -0.21 -6.53423e-18 6.44354
-0.808638 -0.21 -6.53423e-18 6.43818
-0.806119 -0.21 -6.53423e-18 6.43158
-0.8036 -0.21 -6.53423e-18 6.42393
-0.801081 -0.21 -6.53423e-18 6.41539
-0.798562 -0.21 -6.53423e-18 6.40609
-0.796043 -0.21 -6.53423e-18 6.39615
-0.793523 -0.21 -6.53423e-18 6.38567
-0.791004 -0.21 -6.53423e-18 6.37472
-0.788485 -0.21 -6.53423e-18 6.36338
-0.785966 -0.21 -6.53423e-18 6.35169
-0.783447 -0.21 -6.53423e-18 6.33972
-0.780928 -0.21 -6.53423e-18 6.3275
-0.778409 -0.21 -6.53423e-18 6.31506
-0.77589 -0.21 -6.53423e-18 6.30243
-0.77337 -0.21 -6.53423e-18 6.28965
-0.770851 -0.21 -6.53423e-18 6.27672
-0.768332 -0.21 -6.53423e-18 6.26368
-0.765813 -0.21 -6.53423e-18 6.25054
-0.763294 -0.21 -6.53423e-18 6.23732
-0.760775 -0.21 -6.53423e-18 6.22402
-0.758256 -0.21 -6.53423e-18 6.21067
-0.755737 -0.21 -6.53423e-18 6.19727
-0.753218 -0.21 -6.53423e-18 6.18383
-0.750698 -0.21 -6.53423e-18 6.17036
-0.748179 -0.21 -6.53423e-18 6.15688
-0.74566 -0.21 -6.53423e-18 6.14339
-0.743141 -0.21 -6.53423e-18 6.12989
-0.740622 -0.21 -6.53423e-18 6.11639
-0.738103 -0.21 -6.53423e-18 6.1029
-0.735584 -0.21 -6.53423e-18 6.08942
-0.733065 -0.21 -6.53423e-18 6.07597
-0.730545 -0.21 -6.53423e-18 6.06254
-0.728026 -0.21 -6.53423e-18 6.04913
-0.725507 -0.21 -6.53423e-18 6.03576
-0.722988 -0.21 -6.53423e-18 6.02243
-0.720469 -0.21 -6.53423e-18 6.00914
-0.71795 -0.21 -6.53423e-18 5.99589
-0.715431 -0.21 -6.53423e-18 5.98269
-0.712912 -0.21 -6.53423e-18 5.96954
-0.710392 -0.21 -6.53423e-18 5.95644
-0.707873 -0.21 -6.53423e-18 5.94341
-0.705354 -0.21 -6.53423e-18 5.93043
-0.702835 -0.21 -6.53423e-18 5.91752
-0.700316 -0.21 -6.53423e-18 5.90467
-0.697797 -0.21 -6.53423e-18 5.89189
-0.695278 -0.21 -6.53423e-18 5.87918
-0.692759 -0.21 -6.53423e-18 5.86654
-0.690239 -0.21 -6.53423e-18 5.85398
-0.68772 -0.21 -6.53423e-18 5.8415
-0.685201 -0.21 -6.53423e-18 5.8291
-0.682682 -0.21 -6.53423e-18 5.81678
-0.680163 -0.21 -6.53423e-18 5.80455
-0.677644 -0.21 -6.53423e-18 5.7924
-0.675125 -0.21 -6.53423e-18 5.78035
-0.672606 -0.21 -6.53423e-18 5.76839
-0.670086 -0.21 -6.53423e-18 5.75653
-0.667567 -0.21 -6.53423e-18 5.74478
-0.665048 -0.21 -6.53423e-18 5.73312
-0.662529 -0.21 -6.53423e-18 5.72158
-0.66001 -0.21 -6.53423e-18 5.71014
-0.657491 -0.21 -6.53423e-18 5.69881
-0.654972 -0.21 -6.53423e-18 5.6876
-0.652453 -0.21 -6.53423e-18 5.67648
-0.649934 -0.21 -6.53423e-18 5.66548
-0.647414 -0.21 -6.53423e-18 5.65457
-0.644895 -0.21 -6.53423e-18 5.64375
-0.642376 -0.21 -6.53423e-18 5.63304
-0.639857 -0.21 -6.53423e-18 5.62241
-0.637338 -0.21 -6.53423e-18 5.61189
-0.634819 -0.21 -6.53423e-18 5.60146
-0.6323 -0.21 -6.53423e-18 5.59113
-0.629781 -0.21 -6.53423e-18 5.5809
-0.627261 -0.21 -6.53423e-18 5.57078
-0.624742 -0.21 -6.53423e-18 5.56077
-0.622223 -0.21 -6.53423e-18 5.55086
-0.619704 -0.21 -6.53423e-18 5.54107
-0.617185 -0.21 -6.53423e-18 5.53139
-0.614666 -0.21 -6.53423e-18 5.52182
-0.612147 -0.21 -6.53423e-18 5.51238
-0.609628 -0.21 -6.53423e-18 5.50307
-0.607108 -0.21 -6.53423e-18 5.49388
-0.604589 -0.21 -6.53423e-18 5.48483
-0.60207 -0.21 -6.53423e-18 5.4759
-0.599551 -0.21 -6.53423e-18 5.46712
-0.597032 -0.21 -6.53423e-18 5.45848
-0.594513 -0.21 -6.53423e-18 5.44998
-0.591994 -0.21 -6.53423e-18 5.44163
-0.589475 -0.21 -6.53423e-18 5.43343
-0.586955 -0.21 -6.53423e-18 5.42539
-0.584436 -0.21 -6.53423e-18 5.41751
-0.581917 -0.21 -6.53423e-18 5.40979
-0.579398 -0.21 -6.53423e-18 5.40223
-0.576879 -0.21 -6.53423e-18 5.39485
-0.57436 -0.21 -6.53423e-18 5.38764
-0.571841 -0.21 -6.53423e-18 5.38061
-0.569322 -0.21 -6.53423e-18 5.37377
-0.566802 -0.21 -6.53423e-18 5.36711
-0.564283 -0.21 -6.53423e-18 5.36065
-0.561764 -0.21 -6.53423e-18 5.35439
-0.559245 -0.21 -6.53423e-18 5.34833
-0.556726 -0.21 -6.53423e-18 5.34249
-0.554207 -0.21 -6.53423e-18 5.33686
-0.551688 -0.21 -6.53423e-18 5.33145
-0.549169 -0.21 -6.53423e-18 5.32627
-0.54665 -0.21 -6.53423e-18 5.32132
-0.54413 -0.21 -6.53423e-18 5.3166
-0.541611 -0.21 -6.53423e-18 5.31214
-0.539092 -0.21 -6.53423e-18 5.30792
-0.536573 -0.21 -6.53423e-18 5.30396
-0.534054 -0.21 -6.53423e-18 5.30027
-0.531535 -0.21 -6.53423e-18 5.29685
-0.529016 -0.21 -6.53423e-18 5.29371
-0.526497 -0.21 -6.53423e-18 5.29086
-0.523977 -0.21 -6.53423e-18 5.2883
-0.521458 -0.21 -6.53423e-18 5.28605
-0.518939 -0.21 -6.53423e-18 5.28411
-0.51642 -0.21 -6.53423e-18 5.28249
-0.513901 -0.21 -6.53423e-18 5.28121
-0.511382 -0.21 -6.53423e-18 5.28027
-0.508863 -0.21 -6.53423e-18 5.27968
-0.506344 -0.21 -6.53423e-18 5.27945
-0.503824 -0.21 -6.53423e-18 5.27959
-0.501305 -0.21 -6.53423e-18 5.28012
-0.498786 -0.21 -6.53423e-18 5.28104
-0.496267 -0.21 -6.53423e-18 5.28237
-0.493748 -0.21 -6.53423e-18 5.28411
-0.491229 -0.21 -6.53423e-18 5.28629
-0.48871 -0.21 -6.53423e-18 5.28891
-0.486191 -0.21 -6.53423e-18 5.29199
-0.483671 -0.21 -6.53423e-18 5.29553
-0.481152 -0.21 -6.53423e-18 5.29956
-0.478633 -0.21 -6.53423e-18 5.3041
-0.476114 -0.21 -6.53423e-18 5.30914
-0.473595 -0.21 -6.53423e-18 5.31472
-0.471076 -0.21 -6.53423e-18 5.32084
-0.468557 -0.21 -6.53423e-18 5.32752
-0.466038 -0.21 -6.53423e-18 5.33478
-0.463518 -0.21 -6.53423e-18 5.34263
-0.460999 -0.21 -6.53423e-18 5.3511
-0.45848 -0.21 -6.53423e-18 5.36021
-0.455961 -0.21 -6.53423e-18 5.36996
-0.453442 -0.21 -6.53423e-18 5.38039
-0.450923 -0.21 -6.53423e-18 5.39151
-0.448404 -0.21 -6.53423e-18 5.40334
-0.445885 -0.21 -6.53423e-18 5.41591
-0.443365 -0.21 -6.53423e-18 5.42924
-0.440846 -0.21 -6.53423e-18 5.44335
-0.438327 -0.21 -6.53423e-18 5.45827
-0.435808 -0.21 -6.53423e-18 5.47402
-0.433289 -0.21 -6.53423e-18 5.49062
-0.43077 -0.21 -6.53423e-18 5.50811
-0.428251 -0.21 -6.53423e-18 5.52651
-0.425732 -0.21 -6.53423e-18 5.54585
-0.423213 -0.21 -6.53423e-18 5.56616
-0.420693 -0.21 -6.53423e-18 5.58747
-0.418174 -0.21 -6.53423e-18 5.60981
-0.415655 -0.21 -6.53423e-18 5.63321
-0.413136 -0.21 -6.53423e-18 5.65771
-0.410617 -0.21 -6.53423e-18 5.68334
-0.408098 -0.21 -6.53423e-18 5.71013
-0.405579 -0.21 -6.53423e-18 5.73813
-0.40306 -0.21 -6.53423e-18 5.76737
-0.40054 -0.21 -6.53423e-18 5.79789
-0.398021 -0.21 -6.53423e-18 5.82972
-0.395502 -0.21 -6.53423e-18 5.86292
-0.392983 -0.21 -6.53423e-18 5.89751
-0.390464 -0.21 -6.53423e-18 5.93356
-0.387945 -0.21 -6.53423e-18 5.9711
-0.385426 -0.21 -6.53423e-18 6.01017
-0.382907 -0.21 -6.53423e-18 6.05083
-0.380387 -0.21 -6.53423e-18 6.09313
-0.377868 -0.21 -6.53423e-18 6.13711
-0.375349 -0.21 -6.53423e-18 6.18284
-0.37283 -0.21 -6.53423e-18 6.23036
-0.370311 -0.21 -6.53423e-18 6.27972
-0.367792 -0.21 -6.53423e-18 6.331
-0.365273 -0.21 -6.53423e-18 6.38424
-0.362754 -0.21 -6.53423e-18 6.43951
-0.360234 -0.21 -6.53423e-18 6.49688
-0.357715 -0.21 -6.53423e-18 6.5564
-0.355196 -0.21 -6.53423e-18 6.61815
-0.352677 -0.21 -6.53423e-18 6.6822
-0.350158 -0.21 -6.53423e-18 6.74861
-0.347639 -0.21 -6.53423e-18 6.81746
-0.34512 -0.21 -6.53423e-18 6.88884
-0.342601 -0.21 -6.53423e-18 6.96281
-0.340081 -0.21 -6.53423e-18 7.03946
-0.337562 -0.21 -6.53423e-18 7.11887
-0.335043 -0.21 -6.53423e-18 7.20113
-0.332524 -0.21 -6.53423e-18 7.28633
-0.330005 -0.21 -6.53423e-18 7.37455
-0.327486 -0.21 -6.53423e-18 7.46591
-0.324967 -0.21 -6.53423e-18 7.56048
-0.322448 -0.21 -6.53423e-18 7.65838
-0.319929 -0.21 -6.53423e-18 7.7597
-0.317409 -0.21 -6.53423e-18 7.86456
-0.31489 -0.21 -6.53423e-18 7.97306
-0.312371 -0.21 -6.53423e-18 8.08531
-0.309852 -0.21 -6.53423e-18 8.20144
-0.307333 -0.21 -6.53423e-18 8.32156
-0.304814 -0.21 -6.53423e-18 8.44581
-0.302295 -0.21 -6.53423e-18 8.57429
-0.299776 -0.21 -6.53423e-18 8.70716
-0.297256 -0.21 -6.53423e-18 8.84454
-0.294737 -0.21 -6.53423e-18 8.98657
-0.292218 -0.21 -6.53423e-18 9.1334
-0.289699 -0.21 -6.53423e-18 9.28517
-0.28718 -0.21 -6.53423e-18 9.44204
-0.284661 -0.21 -6.53423e-18 9.60416
-0.282142 -0.21 -6.53423e-18 9.77169
-0.279623 -0.21 -6.53423e-18 9.9448
-0.277103 -0.21 -6.53423e-18 10.1236
-0.274584 -0.21 -6.53423e-18 10.3084
-0.272065 -0.21 -6.53423e-18 10.4993
-0.269546 -0.21 -6.53423e-18 10.6965
-0.267027 -0.21 -6.53423e-18 10.8999
-0.264508 -0.21 -6.53423e-18 11.1105
-0.261989 -0.21 -6.53423e-18 11.3265
-0.25947 -0.21 -6.53423e-18 11.5529
-0.25695 -0.21 -6.53423e-18 11.7782
-0.254431 -0.21 -6.53423e-18 12.03
-0.251912 -0.21 -6.53423e-18 12.2481
-0.249393 -0.21 -6.53423e-18 12.486
-0.246875 -0.21 -6.53423e-18 12.7886
-0.244357 -0.21 -6.53423e-18 13.061
-0.24184 -0.21 -6.53423e-18 13.3383
-0.239323 -0.21 -6.53423e-18 13.629
-0.236806 -0.21 -6.53423e-18 13.9285
-0.23429 -0.21 -6.53423e-18 14.2368
-0.231775 -0.21 -6.53423e-18 14.555
-0.22926 -0.21 -6.53423e-18 14.8833
-0.226745 -0.21 -6.53423e-18 15.222
-0.224232 -0.21 -6.53423e-18 15.5714
-0.221718 -0.21 -6.53423e-18 15.932
-0.219205 -0.21 -6.53423e-18 16.3038
-0.216693 -0.21 -6.53423e-18 16.6879
-0.214181 -0.21 -6.53423e-18 17.0828
-0.21167 -0.21 -6.53423e-18 17.4901
-0.209159 -0.21 -6.53423e-18 17.9114
-0.206649 -0.21 -6.53423e-18 18.346
-0.204139 -0.21 -6.53423e-18 18.7942
-0.20163 -0.21 -6.53423e-18 19.2567
-0.199121 -0.21 -6.53423e-18 19.7335
-0.196613 -0.21 -6.53423e-18 20.2255
-0.194105 -0.21 -6.53423e-18 20.7328
-0.191598 -0.21 -6.53423e-18 21.2561
-0.189091 -0.21 -6.53423e-18 21.7959
-0.186585 -0.21 -6.53423e-18 22.3525
-0.18408 -0.21 -6.53423e-18 22.9266
-0.181575 -0.21 -6.53423e-18 23.5187
-0.17907 -0.21 -6.53423e-18 24.1292
-0.176566 -0.21 -6.53423e-18 24.759
-0.174063 -0.21 -6.53423e-18 25.4084
-0.17156 -0.21 -6.53423e-18 26.0782
-0.169058 -0.21 -6.53423e-18 26.7688
-0.166556 -0.21 -6.53423e-18 27.4811
-0.164055 -0.21 -6.53423e-18 28.2157
-0.161555 -0.21 -6.53423e-18 28.9732
-0.159055 -0.21 -6.53423e-18 29.7546
-0.156555 -0.21 -6.53423e-18 30.5603
-0.154056 -0.21 -6.53423e-18 31.391
-0.151558 -0.21 -6.53423e-18 32.2486
-0.14906 -0.21 -6.53423e-18 33.1321
-0.146563 -0.21 -6.53423e-18 34.0437
-0.144066 -0.21 -6.53423e-18 34.9844
-0.14157 -0.21 -6.53423e-18 35.9539
-0.139075 -0.21 -6.53423e-18 36.9545
-0.13658 -0.21 -6.53423e-18 37.9862
-0.134086 -0.21 -6.53423e-18 39.0513
-0.131592 -0.21 -6.53423e-18 40.1485
-0.129099 -0.21 -6.53423e-18 41.2826
-0.126606 -0.21 -6.53423e-18 42.45
-0.124114 -0.21 -6.53423e-18 43.6566
-0.121623 -0.21 -6.53423e-18 44.899
-0.119132 -0.21 -6.53423e-18 46.1817
-0.116642 -0.21 -6.53423e-18 47.5065
-0.114153 -0.21 -6.53423e-18 48.8739
-0.111664 -0.21 -6.53423e-18 50.2852
-0.109175 -0.21 -6.53423e-18 51.742
-0.106687 -0.21 -6.53423e-18 53.246
-0.1042 -0.21 -6.53423e-18 54.7987
-0.101714 -0.21 -6.53423e-18 56.4018
-0.0992276 -0.21 -6.53423e-18 58.0571
-0.0967422 -0.21 -6.53423e-18 59.7665
-0.0942575 -0.21 -6.53423e-18 61.5319
-0.0917733 -0.21 -6.53423e-18 63.3554
-0.0892898 -0.21 -6.53423e-18 65.2389
-0.0868069 -0.21 -6.53423e-18 67.1848
-0.0843246 -0.21 -6.53423e-18 69.1954
-0.0818429 -0.21 -6.53423e-18 71.2726
-0.0793618 -0.21 -6.53423e-18 73.419
-0.0768814 -0.21 -6.53423e-18 75.6376
-0.0744016 -0.21 -6.53423e-18 77.9309
-0.0719224 -0.21 -6.53423e-18 80.3018
-0.0694438 -0.21 -6.53423e-18 82.7532
-0.0669659 -0.21 -6.53423e-18 85.2881
-0.0644886 -0.21 -6.53423e-18 87.9096
-0.062012 -0.21 -6.53423e-18 90.621
-0.059536 -0.21 -6.53423e-18 93.4257
-0.0570606 -0.21 -6.53423e-18 96.3272
-0.0545859 -0.21 -6.53423e-18 99.329
-0.0521118 -0.21 -6.53423e-18 102.435
-0.0496383 -0.21 -6.53423e-18 105.648
-0.0471655 -0.21 -6.53423e-18 108.973
-0.0446934 -0.21 -6.53423e-18 112.413
-0.0422218 -0.21 -6.53423e-18 115.971
-0.039751 -0.21 -6.53423e-18 119.652
-0.0372808 -0.21 -6.53423e-18 123.457
-0.0348113 -0.21 -6.53423e-18 127.389
-0.0323424 -0.21 -6.53423e-18 131.449
-0.0298741 -0.21 -6.53423e-18 135.639
-0.0274066 -0.21 -6.53423e-18 139.954
-0.0249397 -0.21 -6.53423e-18 144.392
-0.0224734 -0.21 -6.53423e-18 148.944
-0.0200079 -0.21 -6.53423e-18 153.596
-0.017543 -0.21 -6.53423e-18 158.329
-0.0150787 -0.21 -6.53423e-18 163.109
-0.0126152 -0.21 -6.53423e-18 167.898
-0.0101523 -0.21 -6.53423e-18 172.623
-0.0076901 -0.21 -6.53423e-18 177.236
-0.00522857 -0.21 -6.53423e-18 181.566
-0.00276772 -0.21 -6.25705e-18 185.663
-0.000309378 -0.21 4.12184e-05 188.901
0.00213814 -0.21 0.000241266 193.479
0.00456563 -0.21 0.000629873 194.657
0.00696613 -0.21 0.00116015 196.742
0.00933153 -0.21 0.00183 197.639
0.0116563 -0.21 0.00263031 197.688
0.0139383 -0.21 0.00354603 196.504
0.0161777 -0.21 0.00456195 193.881
0.0183768 -0.21 0.00566283 189.478
0.0205402 -0.21 0.00683279 182.995
0.0226731 -0.21 0.00805768 174.39
0.0247805 -0.21 0.00932598 163.403
0.0268688 -0.21 0.0106259 149.605
0.0289452 -0.21 0.0119445 133.066
0.0310161 -0.21 0.0132719 114.366
0.0330864 -0.21 0.0146003 93.1653
0.0351616 -0.21 0.0159209 69.1123
0.0372478 -0.21 0.017224 43.297
0.0393478 -0.21 0.0185047 17.0825
0.0414641 -0.21 0.0197584 -11.9223
0.0436063 -0.21 0.0209665 -45.0142
0.0457825 -0.21 0.0221125 -69.2219
0.0479839 -0.21 0.0232098 -81.2469
0.0502009 -0.21 0.0242751 -101.09
0.0524332 -0.21 0.025308 -120.599
0.0546802 -0.21 0.0263087 -137.126
0.0569399 -0.21 0.0272803 -152.381
0.0592119 -0.21 0.0282228 -168.798
0.0614952 -0.21 0.0291377 -180.449
0.0637844 -0.21 0.0300378 -189.589
0.0660767 -0.21 0.0309299 -208.326
0.0683753 -0.21 0.0318056 -229.959
0.0706842 -0.21 0.0326535 -249.926
0.0730052 -0.21 0.0334679 -264.297
0.0753367 -0.21 0.0342517 -274.552
0.0776765 -0.21 0.0350105 -284.984
0.0800236 -0.21 0.0357464 -296.79
0.0823782 -0.21 0.036458 -307.744
0.08474 -0.21 0.0371452 -316.859
0.0871085 -0.21 0.037809 -324.793
0.089483 -0.21 0.0384511 -332.266
0.091863 -0.21 0.0390722 -339.327
0.0942484 -0.21 0.0396728 -345.595
0.0966385 -0.21 0.0402539 -350.918
0.0990329 -0.21 0.0408171 -355.745
0.101431 -0.21 0.0413636 -360.492
0.103833 -0.21 0.0418944 -365.144
0.106238 -0.21 0.04241 -369.571
0.108646 -0.21 0.0429109 -373.813
0.111058 -0.21 0.0433977 -377.852
0.113471 -0.21 0.0438708 -381.691
0.115888 -0.21 0.0443308 -385.377
0.118307 -0.21 0.0447782 -388.984
0.120728 -0.21 0.0452132 -392.503
0.123151 -0.21 0.0456362 -395.853
0.125576 -0.21 0.0460476 -399.026
0.128003 -0.21 0.046448 -402.162
0.130432 -0.21 0.0468379 -405.372
0.132862 -0.21 0.0472178 -408.715
0.135294 -0.21 0.0475879 -412.385
0.137727 -0.21 0.0479476 -416.261
0.140162 -0.21 0.0482965 -419.843
0.142598 -0.21 0.0486345 -422.928
0.145036 -0.21 0.0489623 -426.034
0.147475 -0.21 0.04928 -429.53
0.149916 -0.21 0.0495871 -433.039
0.152358 -0.21 0.0498833 -436.072
0.154801 -0.21 0.0501688 -438.747
0.157245 -0.21 0.0504443 -441.627
0.159691 -0.21 0.0507095 -444.89
0.162137 -0.21 0.0509637 -447.93
0.164585 -0.21 0.0512068 -450.303
0.167034 -0.21 0.0514393 -452.488
0.169484 -0.21 0.0516618 -455.084
0.171934 -0.21 0.0518737 -457.916
0.174386 -0.21 0.0520742 -460.288
0.176838 -0.21 0.0522638 -462.032
0.179292 -0.21 0.0524431 -463.919
0.181746 -0.21 0.0526121 -466.508
0.1842 -0.21 0.0527696 -469.009
0.186656 -0.21 0.0529148 -470.452
0.189112 -0.21 0.0530488 -471.275
0.191569 -0.21 0.0531728 -472.785
0.194026 -0.21 0.0532861 -475.248
0.196483 -0.21 0.053387 -477.261
0.198942 -0.21 0.0534748 -478.016
0.2014 -0.21 0.0535501 -478.343
0.203859 -0.21 0.0536136 -478.859
0.206318 -0.21 0.0536653 -479.467
0.208778 -0.21 0.0537052 -479.983
0.211238 -0.21 0.053733 -480.42
0.213697 -0.21 0.0537482 -480.729
0.216157 -0.21 0.0537505 -480.876
0.218617 -0.21 0.0537394 -480.729
0.221077 -0.21 0.0537146 -480.08
0.223536 -0.21 0.0536767 -479.185
0.225995 -0.21 0.0536256 -478.589
0.228454 -0.21 0.0535604 -478.21
0.230913 -0.21 0.0534794 -477.11
0.233371 -0.21 0.0533823 -474.841
0.235828 -0.21 0.0532702 -472.381
0.238284 -0.21 0.0531427 -470.589
0.24074 -0.21 0.0529977 -468.611
0.243194 -0.21 0.0528331 -465.298
0.245647 -0.21 0.0526482 -460.606
0.248098 -0.21 0.0524428 -455.185
0.250547 -0.21 0.0522166 -449.152
0.252994 -0.21 0.0519684 -442.174
0.255439 -0.21 0.0516972 -434.182
0.257881 -0.21 0.0514017 -425.006
0.26032 -0.21 0.0510794 -414.799
0.262754 -0.21 0.0507255 -402.679
0.265182 -0.21 0.0503347 -386.702
0.267604 -0.21 0.0499057 -366.015
0.270019 -0.21 0.0494374 -342.969
0.272421 -0.21 0.048908 -318.956
0.274792 -0.21 0.0482619 -290.893
0.277115 -0.21 0.0474594 -250.167
0.279358 -0.21 0.0464612 -236.812
0.281495 -0.21 0.0452504 -231.472
0.283537 -0.21 0.0438804 -229.666
0.285506 -0.21 0.0424078 -228.011
0.287425 -0.21 0.0408691 -227.044
0.289313 -0.21 0.039293 -226.404
0.291187 -0.21 0.0376993 -225.92
0.293059 -0.21 0.0361034 -225.496
0.294941 -0.21 0.03452 -225.405
0.296835 -0.21 0.0329501 -225.316
0.298735 -0.21 0.0313885 -225.224
0.300647 -0.21 0.0298412 -225.196
0.302581 -0.21 0.0283205 -225.248
0.30454 -0.21 0.0268339 -225.381
0.306525 -0.21 0.0253817 -225.532
0.308535 -0.21 0.0239635 -225.687
0.310571 -0.21 0.0225831 -225.864
0.312635 -0.21 0.0212458 -226.07
0.314729 -0.21 0.0199551 -226.294
0.316852 -0.21 0.0187138 -226.532
0.319005 -0.21 0.0175238 -226.779
0.321186 -0.21 0.0163873 -227.036
0.323395 -0.21 0.015306 -227.305
0.325631 -0.21 0.0142811 -227.592
0.327892 -0.21 0.013313 -227.893
0.330176 -0.21 0.0124007 -228.216
0.332481 -0.21 0.0115418 -228.527
0.334804 -0.21 0.0107333 -228.807
0.337143 -0.21 0.00997387 -229.095
0.339497 -0.21 0.00926186 -229.395
0.341864 -0.21 0.00859342 -229.649
0.344242 -0.21 0.0079648 -229.852
0.34663 -0.21 0.00737391 -230.038
0.349026 -0.21 0.00681864 -230.192
0.35143 -0.21 0.00629601 -230.312
0.35384 -0.21 0.0058024 -230.371
0.356254 -0.21 0.00533422 -230.331
0.358674 -0.21 0.00488915 -230.219
0.361097 -0.21 0.00446589 -230.034
0.363523 -0.21 0.00406312 -229.781
0.365953 -0.21 0.00367924 -229.453
0.368385 -0.21 0.00331232 -229.011
0.37082 -0.21 0.00296073 -228.458
0.373256 -0.21 0.0026237 -227.763
0.375695 -0.21 0.00230165 -226.965
0.378135 -0.21 0.00199562 -226.096
0.380578 -0.21 0.00170594 -225.089
0.383023 -0.21 0.00143321 -223.925
0.385469 -0.21 0.00118004 -222.689
0.387918 -0.21 0.000949858 -221.394
0.39037 -0.21 0.000745633 -220.051
0.392823 -0.21 0.000570091 -218.678
0.395279 -0.21 0.000425538 -217.325
0.397736 -0.21 0.00031278 -215.962
0.400194 -0.21 0.000230835 -214.57
0.402653 -0.21 0.000177124 -213.206
0.405113 -0.21 0.000144862 -211.84
0.407572 -0.21 0.00012185 -209.913
0.410032 -0.21 9.94819e-05 -207.622
0.412492 -0.21 7.67894e-05 -205.267
0.414952 -0.21 5.11177e-05 -202.668
0.417411 -0.21 2.15765e-05 -199.063
0.419871 -0.21 3.19925e-06 -196.87
0.422331 -0.21 0 -194.07
0.42479 -0.21 0 -191.136
0.42725 -0.21 0 -187.955
0.42971 -0.21 0 -184.716
0.43217 -0.21 0 -181.348
0.43463 -0.21 0 -177.917
0.437089 -0.21 0 -174.402
0.439549 -0.21 0 -170.831
0.442009 -0.21 0 -167.201
0.444469 -0.21 0 -163.526
0.446929 -0.21 0 -159.811
0.449388 -0.21 0 -156.065
0.451848 -0.21 0 -152.294
0.454308 -0.21 0 -148.507
0.456768 -0.21 0 -144.711
0.459228 -0.21 0 -140.913
0.461687 -0.21 0 -137.119
0.464147 -0.21 0 -133.337
0.466607 -0.21 0 -129.572
0.469067 -0.21 0 -125.83
0.471527 -0.21 0 -122.118
0.473986 -0.21 0 -118.442
0.476446 -0.21 0 -114.806
0.478906 -0.21 0 -111.215
0.481366 -0.21 0 -107.676
0.483826 -0.21 0 -104.191
0.486285 -0.21 0 -100.767
0.488745 -0.21 0 -97.4052
0.491205 -0.21 0 -94.1109
0.493665 -0.21 0 -90.8868
0.496125 -0.21 0 -87.736
0.498584 -0.21 0 -84.6611
0.501044 -0.21 0 -81.6645
0.503504 -0.21 0 -78.7482
0.505964 -0.21 0 -75.914
0.508424 -0.21 0 -73.1632
0.510883 -0.21 0 -70.4971
0.513343 -0.21 0 -67.9164
0.515803 -0.21 0 -65.4218
0.518263 -0.21 0 -63.0135
0.520723 -0.21 0 -60.6917
0.523182 -0.21 0 -58.4562
0.525642 -0.21 0 -56.3066
0.528102 -0.21 0 -54.2424
0.530562 -0.21 0 -52.263
0.533021 -0.21 0 -50.3674
0.535481 -0.21 0 -48.5545
0.537941 -0.21 0 -46.8232
0.540401 -0.21 0 -45.1722
0.542861 -0.21 0 -43.6001
0.54532 -0.21 0 -42.1056
0.54778 -0.21 0 -40.6869
0.55024 -0.21 0 -39.3427
0.5527 -0.21 0 -38.071
0.55516 -0.21 0 -36.8704
0.557619 -0.21 0 -35.7388
0.560079 -0.21 0 -34.6744
0.562539 -0.21 0 -33.6754
0.564999 -0.21 0 -32.7399
0.567459 -0.21 0 -31.8657
0.569918 -0.21 0 -31.0512
0.572378 -0.21 0 -30.2943
0.574838 -0.21 0 -29.5931
0.577298 -0.21 0 -28.9458
0.579758 -0.21 0 -28.3507
0.582217 -0.21 0 -27.8057
0.584677 -0.21 0 -27.3093
0.587137 -0.21 0 -26.8597
0.589597 -0.21 0 -26.4552
0.592057 -0.21 0 -26.0941
0.594516 -0.21 0 -25.7748
0.596976 -0.21 0 -25.4957
0.599436 -0.21 0 -25.2553
0.601896 -0.21 0 -25.0519
0.604356 -0.21 0 -24.8842
0.606815 -0.21 0 -24.7508
0.609275 -0.21 0 -24.6502
0.611735 -0.21 0 -24.5812
0.614195 -0.21 0 -24.5424
0.616655 -0.21 0 -24.5326
0.619114 -0.21 0 -24.5506
0.621574 -0.21 0 -24.5949
0.624034 -0.21 0 -24.6644
0.626494 -0.21 0 -24.7577
0.628954 -0.21 0 -24.8735
0.631413 -0.21 0 -25.0102
0.633873 -0.21 0 -25.1662
0.636333 -0.21 0 -25.3398
0.638793 -0.21 0 -25.5283
0.641253 -0.21 0 -25.73
0.643712 -0.21 0 -25.9403
0.646172 -0.21 0 -26.1572
0.648632 -0.21 0 -26.3711
0.651092 -0.21 0 -26.5809
0.653552 -0.21 0 -26.7624
0.656011 -0.21 0 -26.9323
0.658471 -0.21 0 -27.0025
0.660931 -0.21 0 -27.0642
0.663391 -0.21 0 -26.7871
0.665851 -0.21 0 -26.6726
0.66831 -0.21 0 -24.9875
0.67077 -0.21 0 -25.4096
