# wallShearStress  FACE_DATA 622
#  x  y  z  wallShearStress_x  wallShearStress_y  wallShearStress_z  
-0.850519 -0.21 -6.53423e-18 -1.74782 0 0.00525859
-0.848944 -0.21 -6.53423e-18 -1.72216 0 -0.000804909
-0.846425 -0.21 -6.53423e-18 -1.69135 0 -0.000349345
-0.843906 -0.21 -6.53423e-18 -1.65024 0 -0.000238677
-0.841387 -0.21 -6.53423e-18 -1.61773 0 -0.000163871
-0.838868 -0.21 -6.53423e-18 -1.59425 0 -0.000113409
-0.836349 -0.21 -6.53423e-18 -1.57721 0 -7.66098e-05
-0.833829 -0.21 -6.53423e-18 -1.56521 0 -5.00664e-05
-0.83131 -0.21 -6.53423e-18 -1.55695 0 -3.25069e-05
-0.828791 -0.21 -6.53423e-18 -1.55127 0 -2.14889e-05
-0.826272 -0.21 -6.53423e-18 -1.54729 0 -1.49755e-05
-0.823753 -0.21 -6.53423e-18 -1.54437 0 -1.13925e-05
-0.821234 -0.21 -6.53423e-18 -1.54211 0 -9.53522e-06
-0.818715 -0.21 -6.53423e-18 -1.54022 0 -8.63554e-06
-0.816196 -0.21 -6.53423e-18 -1.53855 0 -8.21334e-06
-0.813676 -0.21 -6.53423e-18 -1.53702 0 -8.02674e-06
-0.811157 -0.21 -6.53423e-18 -1.53556 0 -7.93392e-06
-0.808638 -0.21 -6.53423e-18 -1.53417 0 -7.84518e-06
-0.806119 -0.21 -6.53423e-18 -1.53282 0 -7.72621e-06
-0.8036 -0.21 -6.53423e-18 -1.53151 0 -7.58497e-06
-0.801081 -0.21 -6.53423e-18 -1.53023 0 -7.38913e-06
-0.798562 -0.21 -6.53423e-18 -1.52901 0 -7.16635e-06
-0.796043 -0.21 -6.53423e-18 -1.52782 0 -6.92535e-06
-0.793523 -0.21 -6.53423e-18 -1.52668 0 -6.65231e-06
-0.791004 -0.21 -6.53423e-18 -1.52559 0 -6.37219e-06
-0.788485 -0.21 -6.53423e-18 -1.52454 0 -6.08794e-06
-0.785966 -0.21 -6.53423e-18 -1.52354 0 -5.80164e-06
-0.783447 -0.21 -6.53423e-18 -1.52259 0 -5.49412e-06
-0.780928 -0.21 -6.53423e-18 -1.52169 0 -5.20743e-06
-0.778409 -0.21 -6.53423e-18 -1.52083 0 -4.94225e-06
-0.77589 -0.21 -6.53423e-18 -1.52001 0 -4.67828e-06
-0.77337 -0.21 -6.53423e-18 -1.51924 0 -4.41581e-06
-0.770851 -0.21 -6.53423e-18 -1.51851 0 -4.17537e-06
-0.768332 -0.21 -6.53423e-18 -1.51781 0 -3.93635e-06
-0.765813 -0.21 -6.53423e-18 -1.51716 0 -3.71932e-06
-0.763294 -0.21 -6.53423e-18 -1.51654 0 -3.52422e-06
-0.760775 -0.21 -6.53423e-18 -1.51595 0 -3.3098e-06
-0.758256 -0.21 -6.53423e-18 -1.5154 0 -3.1171e-06
-0.755737 -0.21 -6.53423e-18 -1.51488 0 -2.92545e-06
-0.753218 -0.21 -6.53423e-18 -1.51439 0 -2.77589e-06
-0.750698 -0.21 -6.53423e-18 -1.51392 0 -2.62718e-06
-0.748179 -0.21 -6.53423e-18 -1.51348 0 -2.45863e-06
-0.74566 -0.21 -6.53423e-18 -1.51307 0 -2.33188e-06
-0.743141 -0.21 -6.53423e-18 -1.51268 0 -2.20573e-06
-0.740622 -0.21 -6.53423e-18 -1.5123 0 -2.08011e-06
-0.738103 -0.21 -6.53423e-18 -1.51195 0 -1.97557e-06
-0.735584 -0.21 -6.53423e-18 -1.51162 0 -1.87144e-06
-0.733065 -0.21 -6.53423e-18 -1.5113 0 -1.76764e-06
-0.730545 -0.21 -6.53423e-18 -1.511 0 -1.68467e-06
-0.728026 -0.21 -6.53423e-18 -1.51072 0 -1.58138e-06
-0.725507 -0.21 -6.53423e-18 -1.51045 0 -1.49889e-06
-0.722988 -0.21 -6.53423e-18 -1.51019 0 -1.43716e-06
-0.720469 -0.21 -6.53423e-18 -1.50995 0 -1.35502e-06
-0.71795 -0.21 -6.53423e-18 -1.50972 0 -1.29357e-06
-0.715431 -0.21 -6.53423e-18 -1.5095 0 -1.23224e-06
-0.712912 -0.21 -6.53423e-18 -1.50929 0 -1.171e-06
-0.710392 -0.21 -6.53423e-18 -1.50909 0 -1.13042e-06
-0.707873 -0.21 -6.53423e-18 -1.5089 0 -1.06933e-06
-0.705354 -0.21 -6.53423e-18 -1.50872 0 -1.02887e-06
-0.702835 -0.21 -6.53423e-18 -1.50854 0 -9.88482e-07
-0.700316 -0.21 -6.53423e-18 -1.50837 0 -9.27587e-07
-0.697797 -0.21 -6.53423e-18 -1.50822 0 -9.07877e-07
-0.695278 -0.21 -6.53423e-18 -1.50806 0 -8.67632e-07
-0.692759 -0.21 -6.53423e-18 -1.50792 0 -8.27398e-07
-0.690239 -0.21 -6.53423e-18 -1.50777 0 -8.07813e-07
-0.68772 -0.21 -6.53423e-18 -1.50764 0 -7.67688e-07
-0.685201 -0.21 -6.53423e-18 -1.50751 0 -7.48144e-07
-0.682682 -0.21 -6.53423e-18 -1.50738 0 -7.28566e-07
-0.680163 -0.21 -6.53423e-18 -1.50726 0 -7.09012e-07
-0.677644 -0.21 -6.53423e-18 -1.50714 0 -6.89493e-07
-0.675125 -0.21 -6.53423e-18 -1.50702 0 -6.69992e-07
-0.672606 -0.21 -6.53423e-18 -1.50691 0 -6.50497e-07
-0.670086 -0.21 -6.53423e-18 -1.5068 0 -6.30994e-07
-0.667567 -0.21 -6.53423e-18 -1.50669 0 -6.32021e-07
-0.665048 -0.21 -6.53423e-18 -1.50659 0 -6.12453e-07
-0.662529 -0.21 -6.53423e-18 -1.50649 0 -5.92733e-07
-0.66001 -0.21 -6.53423e-18 -1.50639 0 -5.72766e-07
-0.657491 -0.21 -6.53423e-18 -1.50629 0 -5.73153e-07
-0.654972 -0.21 -6.53423e-18 -1.50619 0 -5.7329e-07
-0.652453 -0.21 -6.53423e-18 -1.5061 0 -5.52853e-07
-0.649934 -0.21 -6.53423e-18 -1.50601 0 -5.53131e-07
-0.647414 -0.21 -6.53423e-18 -1.50591 0 -5.3292e-07
-0.644895 -0.21 -6.53423e-18 -1.50583 0 -5.13165e-07
-0.642376 -0.21 -6.53423e-18 -1.50574 0 -5.34562e-07
-0.639857 -0.21 -6.53423e-18 -1.50565 0 -5.35433e-07
-0.637338 -0.21 -6.53423e-18 -1.50556 0 -5.15909e-07
-0.634819 -0.21 -6.53423e-18 -1.50548 0 -4.96383e-07
-0.6323 -0.21 -6.53423e-18 -1.5054 0 -4.97295e-07
-0.629781 -0.21 -6.53423e-18 -1.50531 0 -5.18662e-07
-0.627261 -0.21 -6.53423e-18 -1.50523 0 -4.98817e-07
-0.624742 -0.21 -6.53423e-18 -1.50515 0 -4.9963e-07
-0.622223 -0.21 -6.53423e-18 -1.50506 0 -5.21148e-07
-0.619704 -0.21 -6.53423e-18 -1.50498 0 -5.01548e-07
-0.617185 -0.21 -6.53423e-18 -1.5049 0 -5.02476e-07
-0.614666 -0.21 -6.53423e-18 -1.50481 0 -5.03376e-07
-0.612147 -0.21 -6.53423e-18 -1.50473 0 -5.04257e-07
-0.609628 -0.21 -6.53423e-18 -1.50465 0 -5.25681e-07
-0.607108 -0.21 -6.53423e-18 -1.50456 0 -5.05939e-07
-0.604589 -0.21 -6.53423e-18 -1.50448 0 -5.06742e-07
-0.60207 -0.21 -6.53423e-18 -1.5044 0 -5.28058e-07
-0.599551 -0.21 -6.53423e-18 -1.50431 0 -5.28811e-07
-0.597032 -0.21 -6.53423e-18 -1.50422 0 -5.29682e-07
-0.594513 -0.21 -6.53423e-18 -1.50414 0 -5.30586e-07
-0.591994 -0.21 -6.53423e-18 -1.50405 0 -5.31467e-07
-0.589475 -0.21 -6.53423e-18 -1.50397 0 -5.32312e-07
-0.586955 -0.21 -6.53423e-18 -1.50388 0 -5.53705e-07
-0.584436 -0.21 -6.53423e-18 -1.50379 0 -5.54554e-07
-0.581917 -0.21 -6.53423e-18 -1.5037 0 -5.55365e-07
-0.579398 -0.21 -6.53423e-18 -1.50361 0 -5.76799e-07
-0.576879 -0.21 -6.53423e-18 -1.50352 0 -5.77727e-07
-0.57436 -0.21 -6.53423e-18 -1.50342 0 -5.78698e-07
-0.571841 -0.21 -6.53423e-18 -1.50333 0 -5.79653e-07
-0.569322 -0.21 -6.53423e-18 -1.50324 0 -6.0118e-07
-0.566802 -0.21 -6.53423e-18 -1.50314 0 -6.02232e-07
-0.564283 -0.21 -6.53423e-18 -1.50304 0 -6.03352e-07
-0.561764 -0.21 -6.53423e-18 -1.50294 0 -6.24994e-07
-0.559245 -0.21 -6.53423e-18 -1.50284 0 -6.46628e-07
-0.556726 -0.21 -6.53423e-18 -1.50274 0 -6.47669e-07
-0.554207 -0.21 -6.53423e-18 -1.50264 0 -6.48737e-07
-0.551688 -0.21 -6.53423e-18 -1.50253 0 -6.70423e-07
-0.549169 -0.21 -6.53423e-18 -1.50242 0 -6.71548e-07
-0.54665 -0.21 -6.53423e-18 -1.50231 0 -6.72692e-07
-0.54413 -0.21 -6.53423e-18 -1.50221 0 -6.94466e-07
-0.541611 -0.21 -6.53423e-18 -1.50209 0 -7.16268e-07
-0.539092 -0.21 -6.53423e-18 -1.50198 0 -7.17595e-07
-0.536573 -0.21 -6.53423e-18 -1.50186 0 -7.39562e-07
-0.534054 -0.21 -6.53423e-18 -1.50174 0 -7.61514e-07
-0.531535 -0.21 -6.53423e-18 -1.50162 0 -7.62919e-07
-0.529016 -0.21 -6.53423e-18 -1.5015 0 -7.64351e-07
-0.526497 -0.21 -6.53423e-18 -1.50138 0 -7.86373e-07
-0.523977 -0.21 -6.53423e-18 -1.50125 0 -8.08425e-07
-0.521458 -0.21 -6.53423e-18 -1.50112 0 -8.30507e-07
-0.518939 -0.21 -6.53423e-18 -1.50098 0 -8.5265e-07
-0.51642 -0.21 -6.53423e-18 -1.50085 0 -8.54252e-07
-0.513901 -0.21 -6.53423e-18 -1.50071 0 -8.76463e-07
-0.511382 -0.21 -6.53423e-18 -1.50057 0 -8.98723e-07
-0.508863 -0.21 -6.53423e-18 -1.50042 0 -9.00462e-07
-0.506344 -0.21 -6.53423e-18 -1.50028 0 -9.22848e-07
-0.503824 -0.21 -6.53423e-18 -1.50013 0 -9.45289e-07
-0.501305 -0.21 -6.53423e-18 -1.49998 0 -9.67774e-07
-0.498786 -0.21 -6.53423e-18 -1.49982 0 -9.9031e-07
-0.496267 -0.21 -6.53423e-18 -1.49967 0 -1.01289e-06
-0.493748 -0.21 -6.53423e-18 -1.4995 0 -1.03549e-06
-0.491229 -0.21 -6.53423e-18 -1.49934 0 -1.05815e-06
-0.48871 -0.21 -6.53423e-18 -1.49916 0 -1.08086e-06
-0.486191 -0.21 -6.53423e-18 -1.49899 0 -1.083e-06
-0.483671 -0.21 -6.53423e-18 -1.49882 0 -1.12631e-06
-0.481152 -0.21 -6.53423e-18 -1.49863 0 -1.14909e-06
-0.478633 -0.21 -6.53423e-18 -1.49846 0 -1.17192e-06
-0.476114 -0.21 -6.53423e-18 -1.49826 0 -1.21537e-06
-0.473595 -0.21 -6.53423e-18 -1.49807 0 -1.21772e-06
-0.471076 -0.21 -6.53423e-18 -1.49788 0 -1.24073e-06
-0.468557 -0.21 -6.53423e-18 -1.49768 0 -1.28438e-06
-0.466038 -0.21 -6.53423e-18 -1.49747 0 -1.30754e-06
-0.463518 -0.21 -6.53423e-18 -1.49726 0 -1.33078e-06
-0.460999 -0.21 -6.53423e-18 -1.49705 0 -1.3747e-06
-0.45848 -0.21 -6.53423e-18 -1.49682 0 -1.39812e-06
-0.455961 -0.21 -6.53423e-18 -1.4966 0 -1.42161e-06
-0.453442 -0.21 -6.53423e-18 -1.49637 0 -1.46578e-06
-0.450923 -0.21 -6.53423e-18 -1.49614 0 -1.48943e-06
-0.448404 -0.21 -6.53423e-18 -1.4959 0 -1.53372e-06
-0.445885 -0.21 -6.53423e-18 -1.49565 0 -1.57806e-06
-0.443365 -0.21 -6.53423e-18 -1.4954 0 -1.60189e-06
-0.440846 -0.21 -6.53423e-18 -1.49514 0 -1.62584e-06
-0.438327 -0.21 -6.53423e-18 -1.49488 0 -1.67049e-06
-0.435808 -0.21 -6.53423e-18 -1.49461 0 -1.71523e-06
-0.433289 -0.21 -6.53423e-18 -1.49434 0 -1.76006e-06
-0.43077 -0.21 -6.53423e-18 -1.49405 0 -1.80498e-06
-0.428251 -0.21 -6.53423e-18 -1.49377 0 -1.82944e-06
-0.425732 -0.21 -6.53423e-18 -1.49347 0 -1.87457e-06
-0.423213 -0.21 -6.53423e-18 -1.49317 0 -1.91982e-06
-0.420693 -0.21 -6.53423e-18 -1.49287 0 -1.98575e-06
-0.418174 -0.21 -6.53423e-18 -1.49254 0 -2.03125e-06
-0.415655 -0.21 -6.53423e-18 -1.49222 0 -2.05629e-06
-0.413136 -0.21 -6.53423e-18 -1.49189 0 -2.12259e-06
-0.410617 -0.21 -6.53423e-18 -1.49155 0 -2.16845e-06
-0.408098 -0.21 -6.53423e-18 -1.49121 0 -2.21444e-06
-0.405579 -0.21 -6.53423e-18 -1.49085 0 -2.28114e-06
-0.40306 -0.21 -6.53423e-18 -1.49048 0 -2.32741e-06
-0.40054 -0.21 -6.53423e-18 -1.49011 0 -2.39441e-06
-0.398021 -0.21 -6.53423e-18 -1.48972 0 -2.441e-06
-0.395502 -0.21 -6.53423e-18 -1.48934 0 -2.50833e-06
-0.392983 -0.21 -6.53423e-18 -1.48893 0 -2.57582e-06
-0.390464 -0.21 -6.53423e-18 -1.48852 0 -2.62291e-06
-0.387945 -0.21 -6.53423e-18 -1.4881 0 -2.69074e-06
-0.385426 -0.21 -6.53423e-18 -1.48767 0 -2.75874e-06
-0.382907 -0.21 -6.53423e-18 -1.48723 0 -2.8475e-06
-0.380387 -0.21 -6.53423e-18 -1.48677 0 -2.91588e-06
-0.377868 -0.21 -6.53423e-18 -1.4863 0 -2.98446e-06
-0.375349 -0.21 -6.53423e-18 -1.48582 0 -3.05325e-06
-0.37283 -0.21 -6.53423e-18 -1.48534 0 -3.12227e-06
-0.370311 -0.21 -6.53423e-18 -1.48484 0 -3.21208e-06
-0.367792 -0.21 -6.53423e-18 -1.48432 0 -3.30212e-06
-0.365273 -0.21 -6.53423e-18 -1.48379 0 -3.3924e-06
-0.362754 -0.21 -6.53423e-18 -1.48325 0 -3.48292e-06
-0.360234 -0.21 -6.53423e-18 -1.48269 0 -3.57368e-06
-0.357715 -0.21 -6.53423e-18 -1.48212 0 -3.64413e-06
-0.355196 -0.21 -6.53423e-18 -1.48154 0 -3.73541e-06
-0.352677 -0.21 -6.53423e-18 -1.48094 0 -3.86811e-06
-0.350158 -0.21 -6.53423e-18 -1.48031 0 -3.95994e-06
-0.347639 -0.21 -6.53423e-18 -1.47968 0 -4.05206e-06
-0.34512 -0.21 -6.53423e-18 -1.47903 0 -4.16505e-06
-0.342601 -0.21 -6.53423e-18 -1.47837 0 -4.27834e-06
-0.340081 -0.21 -6.53423e-18 -1.47768 0 -4.39195e-06
-0.337562 -0.21 -6.53423e-18 -1.47698 0 -4.50588e-06
-0.335043 -0.21 -6.53423e-18 -1.47626 0 -4.6407e-06
-0.332524 -0.21 -6.53423e-18 -1.47551 0 -4.7553e-06
-0.330005 -0.21 -6.53423e-18 -1.47475 0 -4.87026e-06
-0.327486 -0.21 -6.53423e-18 -1.47397 0 -5.02673e-06
-0.324967 -0.21 -6.53423e-18 -1.47316 0 -5.163e-06
-0.322448 -0.21 -6.53423e-18 -1.47234 0 -5.27908e-06
-0.319929 -0.21 -6.53423e-18 -1.4715 0 -5.4367e-06
-0.317409 -0.21 -6.53423e-18 -1.47062 0 -5.59474e-06
-0.31489 -0.21 -6.53423e-18 -1.46973 0 -5.75319e-06
-0.312371 -0.21 -6.53423e-18 -1.46881 0 -5.91207e-06
-0.309852 -0.21 -6.53423e-18 -1.46786 0 -6.07139e-06
-0.307333 -0.21 -6.53423e-18 -1.46689 0 -6.23117e-06
-0.304814 -0.21 -6.53423e-18 -1.46589 0 -6.41198e-06
-0.302295 -0.21 -6.53423e-18 -1.46486 0 -6.59327e-06
-0.299776 -0.21 -6.53423e-18 -1.46381 0 -6.77503e-06
-0.297256 -0.21 -6.53423e-18 -1.46272 0 -6.97787e-06
-0.294737 -0.21 -6.53423e-18 -1.46161 0 -7.16063e-06
-0.292218 -0.21 -6.53423e-18 -1.46046 0 -7.36448e-06
-0.289699 -0.21 -6.53423e-18 -1.45928 0 -7.56881e-06
-0.28718 -0.21 -6.53423e-18 -1.45807 0 -7.77374e-06
-0.284661 -0.21 -6.53423e-18 -1.45683 0 -7.99953e-06
-0.282142 -0.21 -6.53423e-18 -1.45555 0 -8.24694e-06
-0.279623 -0.21 -6.53423e-18 -1.45422 0 -8.47288e-06
-0.277103 -0.21 -6.53423e-18 -1.45287 0 -8.70268e-06
-0.274584 -0.21 -6.53423e-18 -1.45147 0 -8.94491e-06
-0.272065 -0.21 -6.53423e-18 -1.45004 0 -9.20851e-06
-0.269546 -0.21 -6.53423e-18 -1.44857 0 -9.44089e-06
-0.267027 -0.21 -6.53423e-18 -1.44705 0 -9.75918e-06
-0.264508 -0.21 -6.53423e-18 -1.44551 0 -9.8903e-06
-0.261989 -0.21 -6.53423e-18 -1.44388 0 -1.04808e-05
-0.25947 -0.21 -6.53423e-18 -1.44232 0 -9.98313e-06
-0.25695 -0.21 -6.53423e-18 -1.44043 0 -1.21896e-05
-0.254431 -0.21 -6.53423e-18 -1.43915 0 -4.6119e-06
-0.251912 -0.21 -6.53423e-18 -1.43779 0 -2.08154e-05
-0.249393 -0.21 -6.53423e-18 -1.43491 0 -3.04904e-05
-0.246875 -0.21 -6.53423e-18 -1.43264 1.14509e-23 -1.47055e-05
-0.244357 -0.21 -6.53423e-18 -1.43115 0 -1.89568e-05
-0.24184 -0.21 -6.53423e-18 -1.42933 0 -2.18099e-05
-0.239323 -0.21 -6.53423e-18 -1.42733 0 -2.22301e-05
-0.236806 -0.21 -6.53423e-18 -1.42529 0 -2.28619e-05
-0.23429 -0.21 -6.53423e-18 -1.42317 1.27589e-23 -2.36975e-05
-0.231775 -0.21 -6.53423e-18 -1.42099 0 -2.44633e-05
-0.22926 -0.21 -6.53423e-18 -1.41875 -1.33433e-23 -2.52443e-05
-0.226745 -0.21 -6.53423e-18 -1.41643 0 -2.60379e-05
-0.224232 -0.21 -6.53423e-18 -1.41405 1.39655e-23 -2.68729e-05
-0.221718 -0.21 -6.53423e-18 -1.41161 1.42918e-23 -2.77067e-05
-0.219205 -0.21 -6.53423e-18 -1.40908 0 -2.86487e-05
-0.216693 -0.21 -6.53423e-18 -1.40649 1.49758e-23 -2.95258e-05
-0.214181 -0.21 -6.53423e-18 -1.40383 0 -3.07189e-05
-0.21167 -0.21 -6.53423e-18 -1.40106 0 -3.18272e-05
-0.209159 -0.21 -6.53423e-18 -1.39819 0 -3.26942e-05
-0.206649 -0.21 -6.53423e-18 -1.39526 0 -3.3695e-05
-0.204139 -0.21 -6.53423e-18 -1.39224 0 -3.48073e-05
-0.20163 -0.21 -6.53423e-18 -1.38914 -3.46093e-23 -3.59101e-05
-0.199121 -0.21 -6.53423e-18 -1.38593 3.54756e-23 -3.7085e-05
-0.196613 -0.21 -6.53423e-18 -1.38264 0 -3.82494e-05
-0.194105 -0.21 -6.53423e-18 -1.37925 -7.45867e-23 -3.94999e-05
-0.191598 -0.21 -6.53423e-18 -1.37575 0 -4.07427e-05
-0.189091 -0.21 -6.53423e-18 -1.37215 0 -4.20046e-05
-0.186585 -0.21 -6.53423e-18 -1.36845 0 -4.33251e-05
-0.18408 -0.21 -6.53423e-18 -1.36463 0 -4.47122e-05
-0.181575 -0.21 -6.53423e-18 -1.3607 8.47389e-23 -4.60949e-05
-0.17907 -0.21 -6.53423e-18 -1.35665 -8.69672e-23 -4.75771e-05
-0.176566 -0.21 -6.53423e-18 -1.35247 -8.92669e-23 -4.90519e-05
-0.174063 -0.21 -6.53423e-18 -1.34818 0 -5.06048e-05
-0.17156 -0.21 -6.53423e-18 -1.34375 0 -5.2206e-05
-0.169058 -0.21 -6.53423e-18 -1.33918 -9.66122e-23 -5.38624e-05
-0.166556 -0.21 -6.53423e-18 -1.33448 -3.06836e-27 -5.55894e-05
-0.164055 -0.21 -6.53423e-18 -1.32963 -1.01902e-22 -5.7376e-05
-0.161555 -0.21 -6.53423e-18 -1.32462 -1.04678e-22 -5.92268e-05
-0.159055 -0.21 -6.53423e-18 -1.31946 1.07536e-22 -6.11295e-05
-0.156555 -0.21 -6.53423e-18 -1.31415 3.32743e-27 -6.31218e-05
-0.154056 -0.21 -6.53423e-18 -1.30864 0 -6.52749e-05
-0.151558 -0.21 -6.53423e-18 -1.30298 0 -6.72707e-05
-0.14906 -0.21 -6.53423e-18 -1.29713 0 -6.96289e-05
-0.146563 -0.21 -6.53423e-18 -1.29108 0 -7.19779e-05
-0.144066 -0.21 -6.53423e-18 -1.28484 0 -7.42895e-05
-0.14157 -0.21 -6.53423e-18 -1.2784 0 -7.54474e-05
-0.139075 -0.21 -6.53423e-18 -1.27174 -6.69664e-23 -7.60965e-05
-0.13658 -0.21 -6.53423e-18 -1.26485 0 -7.83922e-05
-0.134086 -0.21 -6.53423e-18 -1.25775 7.08143e-23 -8.10249e-05
-0.131592 -0.21 -6.53423e-18 -1.25037 7.28285e-23 -8.42006e-05
-0.129099 -0.21 -6.53423e-18 -1.24276 7.49112e-23 -8.70865e-05
-0.126606 -0.21 -6.53423e-18 -1.23483 0 -9.14011e-05
-0.124114 -0.21 -6.53423e-18 -1.22649 -7.92723e-23 -9.52461e-05
-0.121623 -0.21 -6.53423e-18 -1.21782 -4.07781e-23 -9.921e-05
-0.119132 -0.21 -6.53423e-18 -1.20877 0 -0.000102826
-0.116642 -0.21 -6.53423e-18 -1.19941 0 -0.000106387
-0.114153 -0.21 -6.53423e-18 -1.18974 0 -0.000110189
-0.111664 -0.21 -6.53423e-18 -1.17974 0 -0.000114156
-0.109175 -0.21 -6.53423e-18 -1.1694 0 -0.0001183
-0.106687 -0.21 -6.53423e-18 -1.15868 0 -0.00012262
-0.1042 -0.21 -6.53423e-18 -1.14759 0 -0.0001271
-0.101714 -0.21 -6.53423e-18 -1.1361 0 -0.000131802
-0.0992276 -0.21 -6.53423e-18 -1.12419 -5.29078e-23 -0.000136674
-0.0967422 -0.21 -6.53423e-18 -1.11187 0 -0.000141766
-0.0942575 -0.21 -6.53423e-18 -1.09908 -5.61217e-23 -0.000147117
-0.0917733 -0.21 -6.53423e-18 -1.08582 5.781e-23 -0.000152685
-0.0892898 -0.21 -6.53423e-18 -1.07207 -5.95552e-23 -0.000158504
-0.0868069 -0.21 -6.53423e-18 -1.0578 0 -0.000164583
-0.0843246 -0.21 -6.53423e-18 -1.04299 -3.91691e-27 -0.000171186
-0.0818429 -0.21 -6.53423e-18 -1.02752 6.51586e-23 -0.000178262
-0.0793618 -0.21 -6.53423e-18 -1.01141 6.71479e-23 -0.000185505
-0.0768814 -0.21 -6.53423e-18 -0.994634 2.08128e-27 -0.000192925
-0.0744016 -0.21 -6.53423e-18 -0.977195 0 -0.000200671
-0.0719224 -0.21 -6.53423e-18 -0.959039 -4.55827e-27 -0.000208845
-0.0694438 -0.21 -6.53423e-18 -0.940143 4.56077e-27 -0.000217406
-0.0669659 -0.21 -6.53423e-18 -0.920459 -4.84719e-27 -0.000226429
-0.0644886 -0.21 -6.53423e-18 -0.89994 -1.49337e-28 -0.000235969
-0.062012 -0.21 -6.53423e-18 -0.878533 2.42387e-27 -0.000245984
-0.059536 -0.21 -6.53423e-18 -0.856197 2.58002e-27 -0.000256525
-0.0570606 -0.21 -6.53423e-18 -0.832863 -2.74449e-27 -0.000267695
-0.0545859 -0.21 -6.53423e-18 -0.808476 2.74627e-27 -0.000279495
-0.0521118 -0.21 -6.53423e-18 -0.782957 -2.92266e-27 -0.000291967
-0.0496383 -0.21 -6.53423e-18 -0.756245 2.92469e-27 -0.00030515
-0.0471655 -0.21 -6.53423e-18 -0.728254 1.0045e-22 -0.000319088
-0.0446934 -0.21 -6.53423e-18 -0.698898 0 -0.000333859
-0.0422218 -0.21 -6.53423e-18 -0.668083 -3.31914e-27 -0.000349486
-0.039751 -0.21 -6.53423e-18 -0.63571 -1.10545e-22 -0.000365988
-0.0372808 -0.21 -6.53423e-18 -0.601673 -1.76965e-27 -0.000383376
-0.0348113 -0.21 -6.53423e-18 -0.56586 8.57365e-28 -0.000401654
-0.0323424 -0.21 -6.53423e-18 -0.528158 -2.91506e-29 -0.000420743
-0.0298741 -0.21 -6.53423e-18 -0.488455 -3.00802e-29 -0.000440521
-0.0274066 -0.21 -6.53423e-18 -0.446648 -1.03763e-27 -0.000460735
-0.0249397 -0.21 -6.53423e-18 -0.40265 -1.34135e-22 -0.000480985
-0.0224734 -0.21 -6.53423e-18 -0.356425 2.08117e-27 -0.000500498
-0.0200079 -0.21 -6.53423e-18 -0.307977 0 -0.000518319
-0.017543 -0.21 -6.53423e-18 -0.257484 0 -0.000532289
-0.0150787 -0.21 -6.53423e-18 -0.205169 -1.17814e-27 -0.000540484
-0.0126152 -0.21 -6.53423e-18 -0.151844 1.17952e-27 -0.000536534
-0.0101523 -0.21 -6.53423e-18 -0.0979784 -6.24082e-28 -0.000536068
-0.0076901 -0.21 -6.53423e-18 -0.0463307 6.24806e-28 -0.000628736
-0.00522857 -0.21 -6.53423e-18 0.00400861 -6.56251e-28 -0.000640906
-0.00276772 -0.21 -6.25705e-18 0.0423115 -1.73907e-22 -0.000487938
-0.000309378 -0.21 4.12184e-05 0.106442 -1.45071e-18 0.00259214
0.00213814 -0.21 0.000241266 0.0353238 -1.18716e-17 0.00337302
0.00456563 -0.21 0.000629873 -0.0624306 -5.97502e-18 -0.0131752
0.00696613 -0.21 0.00116015 -0.108855 3.00927e-36 -0.0291942
0.00933153 -0.21 0.00183 -0.195013 6.05089e-18 -0.0617181
0.0116563 -0.21 0.00263031 -0.291512 -1.20868e-17 -0.107052
0.0139383 -0.21 0.00354603 -0.402836 0 -0.167188
0.0161777 -0.21 0.00456195 -0.527939 -5.83798e-34 -0.242197
0.0183768 -0.21 0.00566283 -0.667719 -1.15284e-17 -0.331716
0.0205402 -0.21 0.00683279 -0.817118 0 -0.431797
0.0226731 -0.21 0.00805768 -0.974565 0 -0.54062
0.0247805 -0.21 0.00932598 -1.14598 8.21682e-34 -0.659435
0.0268688 -0.21 0.0106259 -1.32937 -2.98017e-21 -0.783173
0.0289452 -0.21 0.0119445 -1.51142 -3.44638e-21 -0.901285
0.0310161 -0.21 0.0132719 -1.69446 -6.87886e-18 -1.01504
0.0330864 -0.21 0.0146003 -1.89064 0 -1.12837
0.0351616 -0.21 0.0159209 -2.08703 -4.14053e-18 -1.22861
0.0372478 -0.21 0.017224 -2.25591 7.52316e-37 -1.30064
0.0393478 -0.21 0.0185047 -2.43212 -1.01353e-18 -1.36969
0.0414641 -0.21 0.0197584 -2.66342 4.98903e-21 -1.4473
0.0436063 -0.21 0.0209665 -2.77845 4.06981e-21 -1.42496
0.0457825 -0.21 0.0221125 -2.6567 2.93874e-39 -1.2944
0.0479839 -0.21 0.0232098 -2.64611 0 -1.24869
0.0502009 -0.21 0.0242751 -2.76904 -3.00927e-36 -1.25311
0.0524332 -0.21 0.025308 -2.825 -1.4262e-17 -1.23402
0.0546802 -0.21 0.0263087 -2.84981 -8.09734e-18 -1.20517
0.0569399 -0.21 0.0272803 -2.90868 8.9861e-18 -1.19139
0.0592119 -0.21 0.0282228 -2.92349 -7.52316e-37 -1.15607
0.0614952 -0.21 0.0291377 -2.88045 1.06323e-17 -1.11294
0.0637844 -0.21 0.0300378 -2.99116 1.50463e-36 -1.1409
0.0660767 -0.21 0.0309299 -3.20236 -7.34261e-34 -1.19398
0.0683753 -0.21 0.0318056 -3.34264 2.69192e-17 -1.2105
0.0706842 -0.21 0.0326535 -3.36746 -2.92355e-17 -1.17331
0.0730052 -0.21 0.0334679 -3.31684 -7.72533e-18 -1.11123
0.0753367 -0.21 0.0342517 -3.29411 8.0224e-18 -1.06532
0.0776765 -0.21 0.0350105 -3.33272 0 -1.04194
0.0800236 -0.21 0.0357464 -3.37666 0 -1.01916
0.0823782 -0.21 0.036458 -3.38765 1.50463e-36 -0.986356
0.08474 -0.21 0.0371452 -3.38198 9.23318e-18 -0.950131
0.0871085 -0.21 0.037809 -3.382 -9.40395e-38 -0.917412
0.089483 -0.21 0.0384511 -3.38884 9.67509e-18 -0.887947
0.091863 -0.21 0.0390722 -3.39142 -4.70198e-38 -0.858326
0.0942484 -0.21 0.0396728 -3.3845 1.00589e-17 -0.827659
0.0966385 -0.21 0.0402539 -3.37584 -2.04266e-17 -0.79872
0.0990329 -0.21 0.0408171 -3.37427 -3.00927e-36 -0.773502
0.101431 -0.21 0.0413636 -3.3784 1.04905e-17 -0.750993
0.103833 -0.21 0.0418944 -3.38258 1.0625e-17 -0.729513
0.106238 -0.21 0.04241 -3.38573 1.0753e-17 -0.708721
0.108646 -0.21 0.0429109 -3.38826 -2.17521e-17 -0.68852
0.111058 -0.21 0.0433977 -3.38995 0 -0.668891
0.113471 -0.21 0.0438708 -3.39146 1.29985e-23 -0.649995
0.115888 -0.21 0.0443308 -3.39397 -2.24248e-17 -0.632029
0.118307 -0.21 0.0447782 -3.39728 1.13174e-17 -0.614766
0.120728 -0.21 0.0452132 -3.39954 0 -0.59775
0.123151 -0.21 0.0456362 -3.40018 -1.15178e-17 -0.581003
0.125576 -0.21 0.0460476 -3.4016 -3.19734e-34 -0.565152
0.128003 -0.21 0.046448 -3.40604 0 -0.550535
0.130432 -0.21 0.0468379 -3.41376 1.24132e-35 -0.53706
0.132862 -0.21 0.0472178 -3.42647 5.94532e-18 -0.524838
0.135294 -0.21 0.0475879 -3.44243 -5.99799e-18 -0.51278
0.137727 -0.21 0.0479476 -3.45253 -3.76158e-37 -0.498896
0.140162 -0.21 0.0482965 -3.45245 7.72583e-34 -0.48317
0.142598 -0.21 0.0486345 -3.45228 7.52316e-37 -0.468195
0.145036 -0.21 0.0489623 -3.46175 -6.19599e-18 -0.455105
0.147475 -0.21 0.04928 -3.47412 3.76158e-37 -0.441854
0.149916 -0.21 0.0495871 -3.47769 0 -0.426649
0.152358 -0.21 0.0498833 -3.47383 3.76158e-37 -0.410641
0.154801 -0.21 0.0501688 -3.47483 -6.38091e-18 -0.396113
0.157245 -0.21 0.0504443 -3.48563 -6.42212e-18 -0.38298
0.159691 -0.21 0.0507095 -3.49458 0 -0.368627
0.162137 -0.21 0.0509637 -3.49078 -6.51387e-18 -0.352112
0.164585 -0.21 0.0512068 -3.48283 1.30983e-17 -0.335842
0.167034 -0.21 0.0514393 -3.48512 6.58099e-18 -0.32161
0.169484 -0.21 0.0516618 -3.49531 -6.61839e-18 -0.307922
0.171934 -0.21 0.0518737 -3.49818 1.38802e-34 -0.292366
0.174386 -0.21 0.0520742 -3.48849 -3.76158e-37 -0.275356
0.176838 -0.21 0.0522638 -3.48129 3.36055e-18 -0.259775
0.179292 -0.21 0.0524431 -3.48992 -9.29111e-35 -0.246262
0.181746 -0.21 0.0526121 -3.50075 6.7856e-18 -0.231494
0.1842 -0.21 0.0527696 -3.49179 1.1849e-35 -0.213513
0.186656 -0.21 0.0529148 -3.4696 -9.40395e-38 -0.195268
0.189112 -0.21 0.0530488 -3.46238 3.42901e-18 -0.180276
0.191569 -0.21 0.0531728 -3.47801 0 -0.16713
0.194026 -0.21 0.0532861 -3.48824 -6.91497e-18 -0.151141
0.196483 -0.21 0.053387 -3.47156 1.38426e-34 -0.13177
0.198942 -0.21 0.0534748 -3.44523 1.10803e-23 -0.112735
0.2014 -0.21 0.0535501 -3.42966 9.46978e-35 -0.0955466
0.203859 -0.21 0.0536136 -3.42251 1.74342e-18 -0.079159
0.206318 -0.21 0.0536653 -3.41535 -5.187e-24 -0.0626362
0.208778 -0.21 0.0537052 -3.40662 -8.74014e-19 -0.045851
0.211238 -0.21 0.053733 -3.39663 0 -0.0287079
0.213697 -0.21 0.0537482 -3.38476 0 -0.0111628
0.216157 -0.21 0.0537505 -3.36934 7.34684e-40 0.00695958
0.218617 -0.21 0.0537394 -3.34743 8.76158e-19 0.0255507
0.221077 -0.21 0.0537146 -3.3232 2.35099e-38 0.043662
0.223536 -0.21 0.0536767 -3.30734 -1.74784e-18 0.0608942
0.225995 -0.21 0.0536256 -3.29916 -1.74604e-18 0.0786373
0.228454 -0.21 0.0535604 -3.28013 1.74512e-18 0.0983894
0.230913 -0.21 0.0534794 -3.23976 0 0.118979
0.233371 -0.21 0.0533823 -3.19775 0 0.138016
0.235828 -0.21 0.0532702 -3.17569 -1.1117e-34 0.156141
0.238284 -0.21 0.0531427 -3.15824 9.40395e-38 0.176102
0.24074 -0.21 0.0529977 -3.11679 3.42856e-18 0.198077
0.243194 -0.21 0.0528331 -3.05051 -3.40731e-18 0.219845
0.245647 -0.21 0.0526482 -2.97935 3.70516e-34 0.24019
0.248098 -0.21 0.0524428 -2.91125 6.68042e-18 0.259771
0.250547 -0.21 0.0522166 -2.83759 -6.59921e-18 0.278858
0.252994 -0.21 0.0519684 -2.75347 -3.76158e-37 0.297034
0.255439 -0.21 0.0516972 -2.65784 1.88455e-34 0.314022
0.257881 -0.21 0.0514017 -2.5528 6.27137e-18 0.329675
0.26032 -0.21 0.0510794 -2.42555 6.13228e-18 0.344313
0.262754 -0.21 0.0507255 -2.2393 -6.44735e-34 0.354258
0.265182 -0.21 0.0503347 -1.97755 -3.58357e-22 0.351532
0.267604 -0.21 0.0499057 -1.68758 -1.09323e-17 0.33448
0.270019 -0.21 0.0494374 -1.3968 -1.88079e-37 0.308574
0.272421 -0.21 0.048908 -0.958579 -9.62965e-18 0.259699
0.274792 -0.21 0.0482619 -0.0166717 3.00927e-36 0.0536205
0.277115 -0.21 0.0474594 0.610645 1.01412e-33 -0.182432
0.279358 -0.21 0.0464612 0.492452 1.44924e-17 -0.224305
0.281495 -0.21 0.0452504 0.34614 -6.01853e-36 -0.204651
0.283537 -0.21 0.0438804 0.229799 -4.08766e-34 -0.157385
0.285506 -0.21 0.0424078 0.186351 0 -0.139758
0.287425 -0.21 0.0408691 0.149855 0 -0.119722
0.289313 -0.21 0.039293 0.131147 0 -0.108248
0.291187 -0.21 0.0376993 0.12002 1.05926e-33 -0.100538
0.293059 -0.21 0.0361034 0.107659 -1.3852e-17 -0.0901856
0.294941 -0.21 0.03452 0.100494 1.41059e-37 -0.0832702
0.296835 -0.21 0.0329501 0.102697 -1.38412e-17 -0.084364
0.298735 -0.21 0.0313885 0.103401 1.55579e-33 -0.0843276
0.300647 -0.21 0.0298412 0.103144 1.07975e-24 -0.0826134
0.302581 -0.21 0.0283205 0.104436 1.38355e-17 -0.0811654
0.30454 -0.21 0.0268339 0.109099 -1.88079e-37 -0.0818814
0.306525 -0.21 0.0253817 0.116749 1.38498e-17 -0.0846186
0.308535 -0.21 0.0239635 0.124717 1.38574e-17 -0.0871405
0.310571 -0.21 0.0225831 0.132811 6.01853e-36 -0.0889542
0.312635 -0.21 0.0212458 0.141961 0 -0.0906582
0.314729 -0.21 0.0199551 0.152296 -3.00927e-36 -0.0923977
0.316852 -0.21 0.0187138 0.163503 -1.38992e-17 -0.0939281
0.319005 -0.21 0.0175238 0.175409 1.39112e-17 -0.0951168
0.321186 -0.21 0.0163873 0.187822 2.78468e-17 -0.0958276
0.323395 -0.21 0.015306 0.200668 -1.20371e-35 -0.0960189
0.325631 -0.21 0.0142811 0.214198 3.32652e-23 -0.0958321
0.327892 -0.21 0.013313 0.228613 -3.25617e-23 -0.0954522
0.330176 -0.21 0.0124007 0.244497 -1.39785e-17 -0.0951707
0.332481 -0.21 0.0115418 0.261895 1.39926e-17 -0.0951154
0.334804 -0.21 0.0107333 0.27902 9.0278e-36 -0.0945729
0.337143 -0.21 0.00997387 0.295949 2.58797e-34 -0.093434
0.339497 -0.21 0.00926186 0.314833 -1.40294e-17 -0.0925854
0.341864 -0.21 0.00859342 0.335118 0 -0.092105
0.344242 -0.21 0.0079648 0.354727 1.49182e-24 -0.0912434
0.34663 -0.21 0.00737391 0.374205 0 -0.090027
0.349026 -0.21 0.00681864 0.39446 -7.02699e-18 -0.0888741
0.35143 -0.21 0.00629601 0.41575 -7.0274e-18 -0.0879696
0.35384 -0.21 0.0058024 0.438186 7.02586e-18 -0.0874753
0.356254 -0.21 0.00533422 0.460313 -1.04202e-23 -0.0870788
0.358674 -0.21 0.00488915 0.481491 6.88428e-35 -0.0863907
0.361097 -0.21 0.00446589 0.502367 0 -0.0855448
0.363523 -0.21 0.00406312 0.523273 0 -0.0846578
0.365953 -0.21 0.00367924 0.544844 3.49086e-18 -0.0839448
0.368385 -0.21 0.00331232 0.566579 1.07019e-23 -0.0834186
0.37082 -0.21 0.00296073 0.58784 1.20837e-23 -0.0828285
0.373256 -0.21 0.0026237 0.607791 -7.17465e-43 -0.0819104
0.375695 -0.21 0.00230165 0.625824 7.52316e-37 -0.0802545
0.378135 -0.21 0.00199562 0.643934 -6.86438e-18 -0.0781404
0.380578 -0.21 0.00170594 0.662163 3.41549e-18 -0.075846
0.383023 -0.21 0.00143321 0.677587 3.76158e-37 -0.0726292
0.385469 -0.21 0.00118004 0.690217 -3.37672e-18 -0.0679337
0.387918 -0.21 0.000949858 0.701781 -1.88079e-37 -0.0620427
0.39037 -0.21 0.000745633 0.712354 0 -0.0550729
0.392823 -0.21 0.000570091 0.721858 0 -0.0470489
0.395279 -0.21 0.000425538 0.731676 -1.64569e-18 -0.0382656
0.397736 -0.21 0.00031278 0.743146 0 -0.0293845
0.400194 -0.21 0.000230835 0.755521 -5.87747e-39 -0.0207475
0.402653 -0.21 0.000177124 0.770989 4.03156e-19 -0.0129323
0.405113 -0.21 0.000144862 0.796757 -2.00161e-19 -0.00801266
0.407572 -0.21 0.00012185 0.824419 0 -0.00745052
0.410032 -0.21 9.94819e-05 0.840098 0 -0.00778451
0.412492 -0.21 7.67894e-05 0.85272 0 -0.0077782
0.414952 -0.21 5.11177e-05 0.87012 -1.55283e-35 -0.0100091
0.417411 -0.21 2.15765e-05 0.859882 -3.75577e-19 -0.0104745
0.419871 -0.21 3.19925e-06 0.847784 -9.28787e-20 -0.00233725
0.422331 -0.21 0 0.862774 0 -9.89214e-05
0.42479 -0.21 0 0.868141 0 -6.88589e-05
0.42725 -0.21 0 0.870107 0 -2.66428e-05
0.42971 -0.21 0 0.868226 0 -2.12339e-05
0.43217 -0.21 0 0.865041 0 -4.52429e-06
0.43463 -0.21 0 0.859704 0 2.21536e-06
0.437089 -0.21 0 0.853042 0 1.32815e-05
0.439549 -0.21 0 0.844737 0 2.01047e-05
0.442009 -0.21 0 0.835098 0 2.78159e-05
0.444469 -0.21 0 0.82404 0 3.41001e-05
0.446929 -0.21 0 0.811671 0 4.07466e-05
0.449388 -0.21 0 0.797999 0 4.66727e-05
0.451848 -0.21 0 0.783094 0 5.25276e-05
0.454308 -0.21 0 0.766986 0 5.79265e-05
0.456768 -0.21 0 0.749738 0 6.30576e-05
0.459228 -0.21 0 0.731395 0 6.78326e-05
0.461687 -0.21 0 0.712013 0 7.23122e-05
0.464147 -0.21 0 0.691636 0 7.65171e-05
0.466607 -0.21 0 0.670315 0 8.04513e-05
0.469067 -0.21 0 0.648095 0 8.4141e-05
0.471527 -0.21 0 0.625026 0 8.75783e-05
0.473986 -0.21 0 0.601155 0 9.07694e-05
0.476446 -0.21 0 0.576537 0 9.37059e-05
0.478906 -0.21 0 0.551225 0 9.63863e-05
0.481366 -0.21 0 0.525272 0 9.8825e-05
0.483826 -0.21 0 0.498734 0 0.000101006
0.486285 -0.21 0 0.471665 0 0.000102966
0.488745 -0.21 0 0.444121 0 0.000104677
0.491205 -0.21 0 0.416153 0 0.000106197
0.493665 -0.21 0 0.387816 0 0.000107478
0.496125 -0.21 0 0.359159 0 0.000108596
0.498584 -0.21 0 0.330236 0 0.000109483
0.501044 -0.21 0 0.301094 0 0.000110234
0.503504 -0.21 0 0.271783 0 0.000110754