/*--------------------------------*- C++ -*----------------------------------*\
  =========                 |
  \\      /  F ield         | OpenFOAM: The Open Source CFD Toolbox
   \\    /   O peration     | Website:  https://openfoam.org
    \\  /    A nd           | Version:  7
     \\/     M anipulation  |
\*---------------------------------------------------------------------------*/
FoamFile
{
    version     2.0;
    format      ascii;
    class       volScalarField;
    location    "2000";
    object      Cx;
}
// * * * * * * * * * * * * * * * * * * * * * * * * * * * * * * * * * * * * * //

dimensions      [0 1 0 0 0 0 0];

internalField   nonuniform List<scalar> 
51626
(
-0.850519
-0.848944
-0.846425
-0.843906
-0.841387
-0.838868
-0.836349
-0.833829
-0.83131
-0.828791
-0.826272
-0.823753
-0.821234
-0.818715
-0.816196
-0.813676
-0.811157
-0.808638
-0.806119
-0.8036
-0.801081
-0.798562
-0.796043
-0.793523
-0.791004
-0.788485
-0.785966
-0.783447
-0.780928
-0.778409
-0.77589
-0.77337
-0.770851
-0.768332
-0.765813
-0.763294
-0.760775
-0.758256
-0.755737
-0.753218
-0.750698
-0.748179
-0.74566
-0.743141
-0.740622
-0.738103
-0.735584
-0.733065
-0.730545
-0.728026
-0.725507
-0.722988
-0.720469
-0.71795
-0.715431
-0.712912
-0.710392
-0.707873
-0.705354
-0.702835
-0.700316
-0.697797
-0.695278
-0.692759
-0.690239
-0.68772
-0.685201
-0.682682
-0.680163
-0.677644
-0.675125
-0.672606
-0.670086
-0.667567
-0.665048
-0.662529
-0.66001
-0.657491
-0.654972
-0.652453
-0.649934
-0.647414
-0.644895
-0.642376
-0.639857
-0.637338
-0.634819
-0.6323
-0.629781
-0.627261
-0.624742
-0.622223
-0.619704
-0.617185
-0.614666
-0.612147
-0.609628
-0.607108
-0.604589
-0.60207
-0.599551
-0.597032
-0.594513
-0.591994
-0.589475
-0.586955
-0.584436
-0.581917
-0.579398
-0.576879
-0.57436
-0.571841
-0.569322
-0.566802
-0.564283
-0.561764
-0.559245
-0.556726
-0.554207
-0.551688
-0.549169
-0.54665
-0.54413
-0.541611
-0.539092
-0.536573
-0.534054
-0.531535
-0.529016
-0.526497
-0.523977
-0.521458
-0.518939
-0.51642
-0.513901
-0.511382
-0.508863
-0.506344
-0.503824
-0.501305
-0.498786
-0.496267
-0.493748
-0.491229
-0.48871
-0.486191
-0.483671
-0.481152
-0.478633
-0.476114
-0.473595
-0.471076
-0.468557
-0.466038
-0.463518
-0.460999
-0.45848
-0.455961
-0.453442
-0.450923
-0.448404
-0.445885
-0.443365
-0.440846
-0.438327
-0.435808
-0.433289
-0.43077
-0.428251
-0.425732
-0.423213
-0.420693
-0.418174
-0.415655
-0.413136
-0.410617
-0.408098
-0.405579
-0.40306
-0.40054
-0.398021
-0.395502
-0.392983
-0.390464
-0.387945
-0.385426
-0.382907
-0.380387
-0.377868
-0.375349
-0.37283
-0.370311
-0.367792
-0.365273
-0.362754
-0.360234
-0.357715
-0.355196
-0.352677
-0.350158
-0.347639
-0.34512
-0.342601
-0.340081
-0.337562
-0.335043
-0.332524
-0.330005
-0.327486
-0.324967
-0.322448
-0.319929
-0.317409
-0.31489
-0.312371
-0.309852
-0.307333
-0.304814
-0.302295
-0.299776
-0.297256
-0.294737
-0.292218
-0.289699
-0.28718
-0.284661
-0.282142
-0.279623
-0.277103
-0.274584
-0.272065
-0.269546
-0.267027
-0.264508
-0.261989
-0.25947
-0.25695
-0.254431
-0.251912
-0.249393
-0.246875
-0.244357
-0.24184
-0.239323
-0.236806
-0.23429
-0.231775
-0.22926
-0.226746
-0.224232
-0.221718
-0.219205
-0.216693
-0.214181
-0.21167
-0.209159
-0.206649
-0.204139
-0.20163
-0.199121
-0.196613
-0.194105
-0.191598
-0.189091
-0.186585
-0.18408
-0.181575
-0.179071
-0.176567
-0.174063
-0.171561
-0.169058
-0.166557
-0.164056
-0.161555
-0.159055
-0.156555
-0.154057
-0.151558
-0.149061
-0.146563
-0.144067
-0.141571
-0.139075
-0.13658
-0.134086
-0.131592
-0.129099
-0.126607
-0.124115
-0.121623
-0.119132
-0.116642
-0.114153
-0.111664
-0.109175
-0.106687
-0.1042
-0.101714
-0.0992277
-0.0967423
-0.0942576
-0.0917734
-0.0892899
-0.086807
-0.0843247
-0.081843
-0.0793619
-0.0768815
-0.0744017
-0.0719225
-0.069444
-0.066966
-0.0644888
-0.0620121
-0.0595361
-0.0570607
-0.054586
-0.0521119
-0.0496384
-0.0471656
-0.0446935
-0.042222
-0.0397511
-0.0372809
-0.0348114
-0.0323425
-0.0298743
-0.0274067
-0.0249398
-0.0224736
-0.020008
-0.0175431
-0.0150789
-0.0126153
-0.0101524
-0.00769022
-0.00522869
-0.00276784
-0.00030949
0.00213798
0.00456539
0.00696582
0.00933115
0.0116558
0.0139378
0.0161772
0.0183763
0.0205396
0.0226725
0.0247799
0.0268681
0.0289446
0.0310155
0.0330857
0.035161
0.0372472
0.0393472
0.0414634
0.0436058
0.0457819
0.0479833
0.0502004
0.0524327
0.0546797
0.0569394
0.0592114
0.0614947
0.0637839
0.0660762
0.0683748
0.0706838
0.0730048
0.0753363
0.0776761
0.0800232
0.0823778
0.0847396
0.0871081
0.0894826
0.0918627
0.094248
0.0966382
0.0990326
0.101431
0.103833
0.106238
0.108646
0.111057
0.113471
0.115888
0.118306
0.120727
0.12315
0.125576
0.128003
0.130431
0.132862
0.135293
0.137727
0.140162
0.142598
0.145036
0.147475
0.149916
0.152358
0.154801
0.157245
0.159691
0.162137
0.164585
0.167034
0.169483
0.171934
0.174386
0.176838
0.179291
0.181745
0.1842
0.186656
0.189112
0.191568
0.194026
0.196483
0.198942
0.2014
0.203859
0.206318
0.208778
0.211238
0.213697
0.216157
0.218617
0.221077
0.223536
0.225995
0.228454
0.230913
0.233371
0.235828
0.238284
0.24074
0.243194
0.245647
0.248098
0.250547
0.252995
0.255439
0.257881
0.26032
0.262754
0.265183
0.267605
0.270019
0.272421
0.274793
0.277115
0.279359
0.281496
0.283537
0.285507
0.287425
0.289314
0.291188
0.293059
0.294942
0.296835
0.298736
0.300648
0.302581
0.304541
0.306526
0.308536
0.310571
0.312636
0.314729
0.316853
0.319005
0.321186
0.323395
0.325631
0.327892
0.330176
0.332481
0.334804
0.337143
0.339498
0.341865
0.344243
0.34663
0.349027
0.35143
0.35384
0.356255
0.358674
0.361097
0.363523
0.365953
0.368385
0.37082
0.373256
0.375695
0.378136
0.380578
0.383023
0.38547
0.387918
0.39037
0.392823
0.395279
0.397736
0.400194
0.402653
0.405113
0.407573
0.410032
0.412492
0.414952
0.417411
0.419871
0.422331
0.42479
0.42725
0.42971
0.43217
0.43463
0.437089
0.439549
0.442009
0.444469
0.446929
0.449388
0.451848
0.454308
0.456768
0.459228
0.461687
0.464147
0.466607
0.469067
0.471527
0.473986
0.476446
0.478906
0.481366
0.483826
0.486285
0.488745
0.491205
0.493665
0.496125
0.498584
0.501044
0.503504
0.505964
0.508424
0.510883
0.513343
0.515803
0.518263
0.520723
0.523182
0.525642
0.528102
0.530562
0.533021
0.535481
0.537941
0.540401
0.542861
0.54532
0.54778
0.55024
0.5527
0.55516
0.557619
0.560079
0.562539
0.564999
0.567459
0.569918
0.572378
0.574838
0.577298
0.579758
0.582217
0.584677
0.587137
0.589597
0.592057
0.594516
0.596976
0.599436
0.601896
0.604356
0.606815
0.609275
0.611735
0.614195
0.616655
0.619114
0.621574
0.624034
0.626494
0.628954
0.631413
0.633873
0.636333
0.638793
0.641253
0.643712
0.646172
0.648632
0.651092
0.653552
0.656012
0.658471
0.660931
0.663391
0.665851
0.668311
0.67077
-0.850519
-0.848944
-0.846425
-0.843906
-0.841387
-0.838868
-0.836349
-0.833829
-0.83131
-0.828791
-0.826272
-0.823753
-0.821234
-0.818715
-0.816196
-0.813676
-0.811157
-0.808638
-0.806119
-0.8036
-0.801081
-0.798562
-0.796043
-0.793523
-0.791004
-0.788485
-0.785966
-0.783447
-0.780928
-0.778409
-0.77589
-0.77337
-0.770851
-0.768332
-0.765813
-0.763294
-0.760775
-0.758256
-0.755737
-0.753218
-0.750698
-0.748179
-0.74566
-0.743141
-0.740622
-0.738103
-0.735584
-0.733065
-0.730545
-0.728026
-0.725507
-0.722988
-0.720469
-0.71795
-0.715431
-0.712912
-0.710392
-0.707873
-0.705354
-0.702835
-0.700316
-0.697797
-0.695278
-0.692759
-0.690239
-0.68772
-0.685201
-0.682682
-0.680163
-0.677644
-0.675125
-0.672606
-0.670086
-0.667567
-0.665048
-0.662529
-0.66001
-0.657491
-0.654972
-0.652453
-0.649934
-0.647414
-0.644895
-0.642376
-0.639857
-0.637338
-0.634819
-0.6323
-0.629781
-0.627261
-0.624742
-0.622223
-0.619704
-0.617185
-0.614666
-0.612147
-0.609628
-0.607108
-0.604589
-0.60207
-0.599551
-0.597032
-0.594513
-0.591994
-0.589475
-0.586955
-0.584436
-0.581917
-0.579398
-0.576879
-0.57436
-0.571841
-0.569322
-0.566802
-0.564283
-0.561764
-0.559245
-0.556726
-0.554207
-0.551688
-0.549169
-0.54665
-0.54413
-0.541611
-0.539092
-0.536573
-0.534054
-0.531535
-0.529016
-0.526497
-0.523977
-0.521458
-0.518939
-0.51642
-0.513901
-0.511382
-0.508863
-0.506344
-0.503824
-0.501305
-0.498786
-0.496267
-0.493748
-0.491229
-0.48871
-0.486191
-0.483671
-0.481152
-0.478633
-0.476114
-0.473595
-0.471076
-0.468557
-0.466038
-0.463518
-0.460999
-0.45848
-0.455961
-0.453442
-0.450923
-0.448404
-0.445885
-0.443365
-0.440846
-0.438327
-0.435808
-0.433289
-0.43077
-0.428251
-0.425732
-0.423213
-0.420693
-0.418174
-0.415655
-0.413136
-0.410617
-0.408098
-0.405579
-0.40306
-0.40054
-0.398021
-0.395502
-0.392983
-0.390464
-0.387945
-0.385426
-0.382907
-0.380387
-0.377868
-0.375349
-0.37283
-0.370311
-0.367792
-0.365273
-0.362754
-0.360234
-0.357715
-0.355196
-0.352677
-0.350158
-0.347639
-0.34512
-0.342601
-0.340081
-0.337562
-0.335043
-0.332524
-0.330005
-0.327486
-0.324967
-0.322448
-0.319929
-0.317409
-0.31489
-0.312371
-0.309852
-0.307333
-0.304814
-0.302295
-0.299776
-0.297256
-0.294737
-0.292218
-0.289699
-0.28718
-0.284661
-0.282142
-0.279623
-0.277103
-0.274584
-0.272065
-0.269546
-0.267027
-0.264508
-0.261989
-0.25947
-0.25695
-0.254431
-0.251912
-0.249394
-0.246875
-0.244357
-0.24184
-0.239323
-0.236807
-0.234291
-0.231775
-0.22926
-0.226746
-0.224232
-0.221718
-0.219206
-0.216693
-0.214181
-0.21167
-0.209159
-0.206649
-0.204139
-0.20163
-0.199121
-0.196613
-0.194105
-0.191598
-0.189092
-0.186586
-0.18408
-0.181575
-0.179071
-0.176567
-0.174064
-0.171561
-0.169058
-0.166557
-0.164056
-0.161555
-0.159055
-0.156556
-0.154057
-0.151558
-0.149061
-0.146564
-0.144067
-0.141571
-0.139075
-0.136581
-0.134086
-0.131592
-0.129099
-0.126607
-0.124115
-0.121623
-0.119133
-0.116642
-0.114153
-0.111664
-0.109175
-0.106688
-0.1042
-0.101714
-0.0992279
-0.0967425
-0.0942578
-0.0917736
-0.0892901
-0.0868072
-0.0843249
-0.0818432
-0.0793621
-0.0768817
-0.0744019
-0.0719227
-0.0694442
-0.0669662
-0.0644889
-0.0620123
-0.0595363
-0.0570609
-0.0545862
-0.0521121
-0.0496386
-0.0471658
-0.0446937
-0.0422222
-0.0397513
-0.0372811
-0.0348116
-0.0323427
-0.0298745
-0.0274069
-0.02494
-0.0224738
-0.0200082
-0.0175433
-0.0150791
-0.0126155
-0.0101526
-0.00769042
-0.0052289
-0.00276805
-0.00030962
0.00213798
0.00456539
0.00696582
0.00933115
0.0116558
0.0139378
0.0161772
0.0183763
0.0205396
0.0226725
0.0247799
0.0268681
0.0289446
0.0310155
0.0330857
0.035161
0.0372472
0.0393472
0.0414634
0.0436058
0.0457819
0.0479833
0.0502004
0.0524327
0.0546797
0.0569394
0.0592114
0.0614947
0.0637839
0.0660762
0.0683748
0.0706838
0.0730048
0.0753363
0.0776761
0.0800232
0.0823778
0.0847396
0.0871081
0.0894826
0.0918627
0.094248
0.0966382
0.0990326
0.101431
0.103833
0.106238
0.108646
0.111057
0.113471
0.115888
0.118306
0.120727
0.12315
0.125576
0.128003
0.130431
0.132862
0.135293
0.137727
0.140162
0.142598
0.145036
0.147475
0.149916
0.152358
0.154801
0.157245
0.159691
0.162137
0.164585
0.167034
0.169483
0.171934
0.174386
0.176838
0.179291
0.181745
0.1842
0.186656
0.189112
0.191568
0.194026
0.196483
0.198942
0.2014
0.203859
0.206318
0.208778
0.211238
0.213697
0.216157
0.218617
0.221077
0.223536
0.225995
0.228454
0.230913
0.233371
0.235828
0.238284
0.24074
0.243194
0.245647
0.248098
0.250547
0.252995
0.255439
0.257881
0.26032
0.262754
0.265183
0.267605
0.270019
0.272421
0.274793
0.277115
0.279359
0.281496
0.283537
0.285507
0.287425
0.289314
0.291188
0.293059
0.294942
0.296835
0.298736
0.300648
0.302581
0.304541
0.306526
0.308536
0.310571
0.312636
0.314729
0.316853
0.319005
0.321186
0.323395
0.325631
0.327892
0.330176
0.332481
0.334804
0.337143
0.339498
0.341865
0.344243
0.34663
0.349027
0.35143
0.35384
0.356255
0.358674
0.361097
0.363523
0.365953
0.368385
0.37082
0.373256
0.375695
0.378136
0.380578
0.383023
0.38547
0.387918
0.39037
0.392823
0.395279
0.397736
0.400194
0.402653
0.405113
0.407573
0.410032
0.412492
0.414952
0.417411
0.419871
0.422331
0.42479
0.42725
0.42971
0.43217
0.43463
0.437089
0.439549
0.442009
0.444469
0.446929
0.449388
0.451848
0.454308
0.456768
0.459228
0.461687
0.464147
0.466607
0.469067
0.471527
0.473986
0.476446
0.478906
0.481366
0.483826
0.486285
0.488745
0.491205
0.493665
0.496125
0.498584
0.501044
0.503504
0.505964
0.508424
0.510883
0.513343
0.515803
0.518263
0.520723
0.523182
0.525642
0.528102
0.530562
0.533021
0.535481
0.537941
0.540401
0.542861
0.54532
0.54778
0.55024
0.5527
0.55516
0.557619
0.560079
0.562539
0.564999
0.567459
0.569918
0.572378
0.574838
0.577298
0.579758
0.582217
0.584677
0.587137
0.589597
0.592057
0.594516
0.596976
0.599436
0.601896
0.604356
0.606815
0.609275
0.611735
0.614195
0.616655
0.619114
0.621574
0.624034
0.626494
0.628954
0.631413
0.633873
0.636333
0.638793
0.641253
0.643712
0.646172
0.648632
0.651092
0.653552
0.656012
0.658471
0.660931
0.663391
0.665851
0.668311
0.67077
-0.850519
-0.848944
-0.846425
-0.843906
-0.841387
-0.838868
-0.836349
-0.833829
-0.83131
-0.828791
-0.826272
-0.823753
-0.821234
-0.818715
-0.816196
-0.813676
-0.811157
-0.808638
-0.806119
-0.8036
-0.801081
-0.798562
-0.796043
-0.793523
-0.791004
-0.788485
-0.785966
-0.783447
-0.780928
-0.778409
-0.77589
-0.77337
-0.770851
-0.768332
-0.765813
-0.763294
-0.760775
-0.758256
-0.755737
-0.753218
-0.750698
-0.748179
-0.74566
-0.743141
-0.740622
-0.738103
-0.735584
-0.733065
-0.730545
-0.728026
-0.725507
-0.722988
-0.720469
-0.71795
-0.715431
-0.712912
-0.710392
-0.707873
-0.705354
-0.702835
-0.700316
-0.697797
-0.695278
-0.692759
-0.690239
-0.68772
-0.685201
-0.682682
-0.680163
-0.677644
-0.675125
-0.672606
-0.670086
-0.667567
-0.665048
-0.662529
-0.66001
-0.657491
-0.654972
-0.652453
-0.649934
-0.647414
-0.644895
-0.642376
-0.639857
-0.637338
-0.634819
-0.6323
-0.629781
-0.627261
-0.624742
-0.622223
-0.619704
-0.617185
-0.614666
-0.612147
-0.609628
-0.607108
-0.604589
-0.60207
-0.599551
-0.597032
-0.594513
-0.591994
-0.589475
-0.586955
-0.584436
-0.581917
-0.579398
-0.576879
-0.57436
-0.571841
-0.569322
-0.566802
-0.564283
-0.561764
-0.559245
-0.556726
-0.554207
-0.551688
-0.549169
-0.54665
-0.54413
-0.541611
-0.539092
-0.536573
-0.534054
-0.531535
-0.529016
-0.526497
-0.523977
-0.521458
-0.518939
-0.51642
-0.513901
-0.511382
-0.508863
-0.506344
-0.503824
-0.501305
-0.498786
-0.496267
-0.493748
-0.491229
-0.48871
-0.486191
-0.483671
-0.481152
-0.478633
-0.476114
-0.473595
-0.471076
-0.468557
-0.466038
-0.463518
-0.460999
-0.45848
-0.455961
-0.453442
-0.450923
-0.448404
-0.445885
-0.443365
-0.440846
-0.438327
-0.435808
-0.433289
-0.43077
-0.428251
-0.425732
-0.423213
-0.420693
-0.418174
-0.415655
-0.413136
-0.410617
-0.408098
-0.405579
-0.40306
-0.40054
-0.398021
-0.395502
-0.392983
-0.390464
-0.387945
-0.385426
-0.382907
-0.380387
-0.377868
-0.375349
-0.37283
-0.370311
-0.367792
-0.365273
-0.362754
-0.360234
-0.357715
-0.355196
-0.352677
-0.350158
-0.347639
-0.34512
-0.342601
-0.340081
-0.337562
-0.335043
-0.332524
-0.330005
-0.327486
-0.324967
-0.322448
-0.319929
-0.317409
-0.31489
-0.312371
-0.309852
-0.307333
-0.304814
-0.302295
-0.299776
-0.297256
-0.294737
-0.292218
-0.289699
-0.28718
-0.284661
-0.282142
-0.279623
-0.277103
-0.274584
-0.272065
-0.269546
-0.267027
-0.264508
-0.261989
-0.25947
-0.25695
-0.254431
-0.251912
-0.249394
-0.246875
-0.244357
-0.24184
-0.239323
-0.236807
-0.234291
-0.231775
-0.22926
-0.226746
-0.224232
-0.221719
-0.219206
-0.216693
-0.214181
-0.21167
-0.209159
-0.206649
-0.204139
-0.20163
-0.199121
-0.196613
-0.194106
-0.191598
-0.189092
-0.186586
-0.18408
-0.181575
-0.179071
-0.176567
-0.174064
-0.171561
-0.169059
-0.166557
-0.164056
-0.161555
-0.159055
-0.156556
-0.154057
-0.151559
-0.149061
-0.146564
-0.144067
-0.141571
-0.139076
-0.136581
-0.134086
-0.131593
-0.1291
-0.126607
-0.124115
-0.121624
-0.119133
-0.116643
-0.114153
-0.111664
-0.109176
-0.106688
-0.104201
-0.101714
-0.0992281
-0.0967427
-0.094258
-0.0917738
-0.0892903
-0.0868074
-0.0843251
-0.0818434
-0.0793623
-0.0768819
-0.0744021
-0.0719229
-0.0694444
-0.0669664
-0.0644892
-0.0620125
-0.0595365
-0.0570611
-0.0545864
-0.0521123
-0.0496388
-0.047166
-0.0446939
-0.0422224
-0.0397515
-0.0372813
-0.0348118
-0.0323429
-0.0298747
-0.0274071
-0.0249402
-0.022474
-0.0200084
-0.0175435
-0.0150793
-0.0126157
-0.0101529
-0.00769065
-0.00522912
-0.00276828
-0.000309763
0.00213798
0.00456539
0.00696582
0.00933115
0.0116558
0.0139378
0.0161772
0.0183763
0.0205396
0.0226725
0.0247799
0.0268681
0.0289446
0.0310155
0.0330857
0.035161
0.0372472
0.0393472
0.0414634
0.0436058
0.0457819
0.0479833
0.0502004
0.0524327
0.0546797
0.0569394
0.0592114
0.0614947
0.0637839
0.0660762
0.0683748
0.0706838
0.0730048
0.0753363
0.0776761
0.0800232
0.0823778
0.0847396
0.0871081
0.0894826
0.0918627
0.094248
0.0966382
0.0990326
0.101431
0.103833
0.106238
0.108646
0.111057
0.113471
0.115888
0.118306
0.120727
0.12315
0.125576
0.128003
0.130431
0.132862
0.135293
0.137727
0.140162
0.142598
0.145036
0.147475
0.149916
0.152358
0.154801
0.157245
0.159691
0.162137
0.164585
0.167034
0.169483
0.171934
0.174386
0.176838
0.179291
0.181745
0.1842
0.186656
0.189112
0.191568
0.194026
0.196483
0.198942
0.2014
0.203859
0.206318
0.208778
0.211238
0.213697
0.216157
0.218617
0.221077
0.223536
0.225995
0.228454
0.230913
0.233371
0.235828
0.238284
0.24074
0.243194
0.245647
0.248098
0.250547
0.252995
0.255439
0.257881
0.26032
0.262754
0.265183
0.267605
0.270019
0.272421
0.274793
0.277115
0.279359
0.281496
0.283537
0.285507
0.287425
0.289314
0.291188
0.293059
0.294942
0.296835
0.298736
0.300648
0.302581
0.304541
0.306526
0.308536
0.310571
0.312636
0.314729
0.316853
0.319005
0.321186
0.323395
0.325631
0.327892
0.330176
0.332481
0.334804
0.337143
0.339498
0.341865
0.344243
0.34663
0.349027
0.35143
0.35384
0.356255
0.358674
0.361097
0.363523
0.365953
0.368385
0.37082
0.373256
0.375695
0.378136
0.380578
0.383023
0.38547
0.387918
0.39037
0.392823
0.395279
0.397736
0.400194
0.402653
0.405113
0.407573
0.410032
0.412492
0.414952
0.417411
0.419871
0.422331
0.42479
0.42725
0.42971
0.43217
0.43463
0.437089
0.439549
0.442009
0.444469
0.446929
0.449388
0.451848
0.454308
0.456768
0.459228
0.461687
0.464147
0.466607
0.469067
0.471527
0.473986
0.476446
0.478906
0.481366
0.483826
0.486285
0.488745
0.491205
0.493665
0.496125
0.498584
0.501044
0.503504
0.505964
0.508424
0.510883
0.513343
0.515803
0.518263
0.520723
0.523182
0.525642
0.528102
0.530562
0.533021
0.535481
0.537941
0.540401
0.542861
0.54532
0.54778
0.55024
0.5527
0.55516
0.557619
0.560079
0.562539
0.564999
0.567459
0.569918
0.572378
0.574838
0.577298
0.579758
0.582217
0.584677
0.587137
0.589597
0.592057
0.594516
0.596976
0.599436
0.601896
0.604356
0.606815
0.609275
0.611735
0.614195
0.616655
0.619114
0.621574
0.624034
0.626494
0.628954
0.631413
0.633873
0.636333
0.638793
0.641253
0.643712
0.646172
0.648632
0.651092
0.653552
0.656012
0.658471
0.660931
0.663391
0.665851
0.668311
0.67077
-0.850519
-0.848944
-0.846425
-0.843906
-0.841387
-0.838868
-0.836349
-0.833829
-0.83131
-0.828791
-0.826272
-0.823753
-0.821234
-0.818715
-0.816196
-0.813676
-0.811157
-0.808638
-0.806119
-0.8036
-0.801081
-0.798562
-0.796043
-0.793523
-0.791004
-0.788485
-0.785966
-0.783447
-0.780928
-0.778409
-0.77589
-0.77337
-0.770851
-0.768332
-0.765813
-0.763294
-0.760775
-0.758256
-0.755737
-0.753218
-0.750698
-0.748179
-0.74566
-0.743141
-0.740622
-0.738103
-0.735584
-0.733065
-0.730545
-0.728026
-0.725507
-0.722988
-0.720469
-0.71795
-0.715431
-0.712912
-0.710392
-0.707873
-0.705354
-0.702835
-0.700316
-0.697797
-0.695278
-0.692759
-0.690239
-0.68772
-0.685201
-0.682682
-0.680163
-0.677644
-0.675125
-0.672606
-0.670086
-0.667567
-0.665048
-0.662529
-0.66001
-0.657491
-0.654972
-0.652453
-0.649934
-0.647414
-0.644895
-0.642376
-0.639857
-0.637338
-0.634819
-0.6323
-0.629781
-0.627261
-0.624742
-0.622223
-0.619704
-0.617185
-0.614666
-0.612147
-0.609628
-0.607108
-0.604589
-0.60207
-0.599551
-0.597032
-0.594513
-0.591994
-0.589475
-0.586955
-0.584436
-0.581917
-0.579398
-0.576879
-0.57436
-0.571841
-0.569322
-0.566802
-0.564283
-0.561764
-0.559245
-0.556726
-0.554207
-0.551688
-0.549169
-0.54665
-0.54413
-0.541611
-0.539092
-0.536573
-0.534054
-0.531535
-0.529016
-0.526497
-0.523977
-0.521458
-0.518939
-0.51642
-0.513901
-0.511382
-0.508863
-0.506344
-0.503824
-0.501305
-0.498786
-0.496267
-0.493748
-0.491229
-0.48871
-0.486191
-0.483671
-0.481152
-0.478633
-0.476114
-0.473595
-0.471076
-0.468557
-0.466038
-0.463518
-0.460999
-0.45848
-0.455961
-0.453442
-0.450923
-0.448404
-0.445885
-0.443365
-0.440846
-0.438327
-0.435808
-0.433289
-0.43077
-0.428251
-0.425732
-0.423213
-0.420693
-0.418174
-0.415655
-0.413136
-0.410617
-0.408098
-0.405579
-0.40306
-0.40054
-0.398021
-0.395502
-0.392983
-0.390464
-0.387945
-0.385426
-0.382907
-0.380387
-0.377868
-0.375349
-0.37283
-0.370311
-0.367792
-0.365273
-0.362754
-0.360234
-0.357715
-0.355196
-0.352677
-0.350158
-0.347639
-0.34512
-0.342601
-0.340081
-0.337562
-0.335043
-0.332524
-0.330005
-0.327486
-0.324967
-0.322448
-0.319929
-0.317409
-0.31489
-0.312371
-0.309852
-0.307333
-0.304814
-0.302295
-0.299776
-0.297256
-0.294737
-0.292218
-0.289699
-0.28718
-0.284661
-0.282142
-0.279623
-0.277103
-0.274584
-0.272065
-0.269546
-0.267027
-0.264508
-0.261989
-0.25947
-0.25695
-0.254431
-0.251913
-0.249394
-0.246876
-0.244358
-0.24184
-0.239323
-0.236807
-0.234291
-0.231775
-0.229261
-0.226746
-0.224232
-0.221719
-0.219206
-0.216693
-0.214182
-0.21167
-0.209159
-0.206649
-0.204139
-0.20163
-0.199122
-0.196613
-0.194106
-0.191599
-0.189092
-0.186586
-0.18408
-0.181575
-0.179071
-0.176567
-0.174064
-0.171561
-0.169059
-0.166557
-0.164056
-0.161555
-0.159055
-0.156556
-0.154057
-0.151559
-0.149061
-0.146564
-0.144067
-0.141571
-0.139076
-0.136581
-0.134087
-0.131593
-0.1291
-0.126607
-0.124115
-0.121624
-0.119133
-0.116643
-0.114153
-0.111664
-0.109176
-0.106688
-0.104201
-0.101714
-0.0992283
-0.0967429
-0.0942582
-0.091774
-0.0892905
-0.0868076
-0.0843253
-0.0818436
-0.0793625
-0.0768821
-0.0744023
-0.0719231
-0.0694446
-0.0669667
-0.0644894
-0.0620127
-0.0595367
-0.0570613
-0.0545866
-0.0521125
-0.0496391
-0.0471663
-0.0446941
-0.0422226
-0.0397518
-0.0372816
-0.034812
-0.0323431
-0.0298749
-0.0274074
-0.0249405
-0.0224742
-0.0200087
-0.0175438
-0.0150795
-0.012616
-0.0101531
-0.0076909
-0.00522937
-0.00276853
-0.000309919
0.00213798
0.00456539
0.00696582
0.00933115
0.0116558
0.0139378
0.0161772
0.0183763
0.0205396
0.0226725
0.0247799
0.0268681
0.0289446
0.0310155
0.0330857
0.035161
0.0372472
0.0393472
0.0414634
0.0436058
0.0457819
0.0479833
0.0502004
0.0524327
0.0546797
0.0569394
0.0592114
0.0614947
0.0637839
0.0660762
0.0683748
0.0706838
0.0730048
0.0753363
0.0776761
0.0800232
0.0823778
0.0847396
0.0871081
0.0894826
0.0918627
0.094248
0.0966382
0.0990326
0.101431
0.103833
0.106238
0.108646
0.111057
0.113471
0.115888
0.118306
0.120727
0.12315
0.125576
0.128003
0.130431
0.132862
0.135293
0.137727
0.140162
0.142598
0.145036
0.147475
0.149916
0.152358
0.154801
0.157245
0.159691
0.162137
0.164585
0.167034
0.169483
0.171934
0.174386
0.176838
0.179291
0.181745
0.1842
0.186656
0.189112
0.191568
0.194026
0.196483
0.198942
0.2014
0.203859
0.206318
0.208778
0.211238
0.213697
0.216157
0.218617
0.221077
0.223536
0.225995
0.228454
0.230913
0.233371
0.235828
0.238284
0.24074
0.243194
0.245647
0.248098
0.250547
0.252995
0.255439
0.257881
0.26032
0.262754
0.265183
0.267605
0.270019
0.272421
0.274793
0.277115
0.279359
0.281496
0.283537
0.285507
0.287425
0.289314
0.291188
0.293059
0.294942
0.296835
0.298736
0.300648
0.302581
0.304541
0.306526
0.308536
0.310571
0.312636
0.314729
0.316853
0.319005
0.321186
0.323395
0.325631
0.327892
0.330176
0.332481
0.334804
0.337143
0.339498
0.341865
0.344243
0.34663
0.349027
0.35143
0.35384
0.356255
0.358674
0.361097
0.363523
0.365953
0.368385
0.37082
0.373256
0.375695
0.378136
0.380578
0.383023
0.38547
0.387918
0.39037
0.392823
0.395279
0.397736
0.400194
0.402653
0.405113
0.407573
0.410032
0.412492
0.414952
0.417411
0.419871
0.422331
0.42479
0.42725
0.42971
0.43217
0.43463
0.437089
0.439549
0.442009
0.444469
0.446929
0.449388
0.451848
0.454308
0.456768
0.459228
0.461687
0.464147
0.466607
0.469067
0.471527
0.473986
0.476446
0.478906
0.481366
0.483826
0.486285
0.488745
0.491205
0.493665
0.496125
0.498584
0.501044
0.503504
0.505964
0.508424
0.510883
0.513343
0.515803
0.518263
0.520723
0.523182
0.525642
0.528102
0.530562
0.533021
0.535481
0.537941
0.540401
0.542861
0.54532
0.54778
0.55024
0.5527
0.55516
0.557619
0.560079
0.562539
0.564999
0.567459
0.569918
0.572378
0.574838
0.577298
0.579758
0.582217
0.584677
0.587137
0.589597
0.592057
0.594516
0.596976
0.599436
0.601896
0.604356
0.606815
0.609275
0.611735
0.614195
0.616655
0.619114
0.621574
0.624034
0.626494
0.628954
0.631413
0.633873
0.636333
0.638793
0.641253
0.643712
0.646172
0.648632
0.651092
0.653552
0.656012
0.658471
0.660931
0.663391
0.665851
0.668311
0.67077
-0.850519
-0.848944
-0.846425
-0.843906
-0.841387
-0.838868
-0.836349
-0.833829
-0.83131
-0.828791
-0.826272
-0.823753
-0.821234
-0.818715
-0.816196
-0.813676
-0.811157
-0.808638
-0.806119
-0.8036
-0.801081
-0.798562
-0.796043
-0.793523
-0.791004
-0.788485
-0.785966
-0.783447
-0.780928
-0.778409
-0.77589
-0.77337
-0.770851
-0.768332
-0.765813
-0.763294
-0.760775
-0.758256
-0.755737
-0.753218
-0.750698
-0.748179
-0.74566
-0.743141
-0.740622
-0.738103
-0.735584
-0.733065
-0.730545
-0.728026
-0.725507
-0.722988
-0.720469
-0.71795
-0.715431
-0.712912
-0.710392
-0.707873
-0.705354
-0.702835
-0.700316
-0.697797
-0.695278
-0.692759
-0.690239
-0.68772
-0.685201
-0.682682
-0.680163
-0.677644
-0.675125
-0.672606
-0.670086
-0.667567
-0.665048
-0.662529
-0.66001
-0.657491
-0.654972
-0.652453
-0.649934
-0.647414
-0.644895
-0.642376
-0.639857
-0.637338
-0.634819
-0.6323
-0.629781
-0.627261
-0.624742
-0.622223
-0.619704
-0.617185
-0.614666
-0.612147
-0.609628
-0.607108
-0.604589
-0.60207
-0.599551
-0.597032
-0.594513
-0.591994
-0.589475
-0.586955
-0.584436
-0.581917
-0.579398
-0.576879
-0.57436
-0.571841
-0.569322
-0.566802
-0.564283
-0.561764
-0.559245
-0.556726
-0.554207
-0.551688
-0.549169
-0.54665
-0.54413
-0.541611
-0.539092
-0.536573
-0.534054
-0.531535
-0.529016
-0.526497
-0.523977
-0.521458
-0.518939
-0.51642
-0.513901
-0.511382
-0.508863
-0.506344
-0.503824
-0.501305
-0.498786
-0.496267
-0.493748
-0.491229
-0.48871
-0.486191
-0.483671
-0.481152
-0.478633
-0.476114
-0.473595
-0.471076
-0.468557
-0.466038
-0.463518
-0.460999
-0.45848
-0.455961
-0.453442
-0.450923
-0.448404
-0.445885
-0.443365
-0.440846
-0.438327
-0.435808
-0.433289
-0.43077
-0.428251
-0.425732
-0.423213
-0.420693
-0.418174
-0.415655
-0.413136
-0.410617
-0.408098
-0.405579
-0.40306
-0.40054
-0.398021
-0.395502
-0.392983
-0.390464
-0.387945
-0.385426
-0.382907
-0.380387
-0.377868
-0.375349
-0.37283
-0.370311
-0.367792
-0.365273
-0.362754
-0.360234
-0.357715
-0.355196
-0.352677
-0.350158
-0.347639
-0.34512
-0.342601
-0.340081
-0.337562
-0.335043
-0.332524
-0.330005
-0.327486
-0.324967
-0.322448
-0.319929
-0.317409
-0.31489
-0.312371
-0.309852
-0.307333
-0.304814
-0.302295
-0.299776
-0.297256
-0.294737
-0.292218
-0.289699
-0.28718
-0.284661
-0.282142
-0.279623
-0.277103
-0.274584
-0.272065
-0.269546
-0.267027
-0.264508
-0.261989
-0.25947
-0.25695
-0.254431
-0.251913
-0.249394
-0.246876
-0.244358
-0.24184
-0.239323
-0.236807
-0.234291
-0.231776
-0.229261
-0.226746
-0.224232
-0.221719
-0.219206
-0.216694
-0.214182
-0.21167
-0.20916
-0.206649
-0.20414
-0.20163
-0.199122
-0.196613
-0.194106
-0.191599
-0.189092
-0.186586
-0.184081
-0.181576
-0.179071
-0.176567
-0.174064
-0.171561
-0.169059
-0.166557
-0.164056
-0.161556
-0.159056
-0.156556
-0.154057
-0.151559
-0.149061
-0.146564
-0.144067
-0.141571
-0.139076
-0.136581
-0.134087
-0.131593
-0.1291
-0.126607
-0.124115
-0.121624
-0.119133
-0.116643
-0.114153
-0.111664
-0.109176
-0.106688
-0.104201
-0.101714
-0.0992285
-0.0967431
-0.0942584
-0.0917742
-0.0892907
-0.0868078
-0.0843255
-0.0818438
-0.0793628
-0.0768823
-0.0744025
-0.0719233
-0.0694448
-0.0669669
-0.0644896
-0.0620129
-0.0595369
-0.0570616
-0.0545868
-0.0521127
-0.0496393
-0.0471665
-0.0446943
-0.0422228
-0.039752
-0.0372818
-0.0348123
-0.0323434
-0.0298752
-0.0274076
-0.0249407
-0.0224745
-0.0200089
-0.017544
-0.0150798
-0.0126162
-0.0101534
-0.00769116
-0.00522964
-0.0027688
-0.00031009
0.00213798
0.00456539
0.00696582
0.00933115
0.0116558
0.0139378
0.0161772
0.0183763
0.0205396
0.0226725
0.0247799
0.0268681
0.0289446
0.0310155
0.0330857
0.035161
0.0372472
0.0393472
0.0414634
0.0436058
0.0457819
0.0479833
0.0502004
0.0524327
0.0546797
0.0569394
0.0592114
0.0614947
0.0637839
0.0660762
0.0683748
0.0706838
0.0730048
0.0753363
0.0776761
0.0800232
0.0823778
0.0847396
0.0871081
0.0894826
0.0918627
0.094248
0.0966382
0.0990326
0.101431
0.103833
0.106238
0.108646
0.111057
0.113471
0.115888
0.118306
0.120727
0.12315
0.125576
0.128003
0.130431
0.132862
0.135293
0.137727
0.140162
0.142598
0.145036
0.147475
0.149916
0.152358
0.154801
0.157245
0.159691
0.162137
0.164585
0.167034
0.169483
0.171934
0.174386
0.176838
0.179291
0.181745
0.1842
0.186656
0.189112
0.191568
0.194026
0.196483
0.198942
0.2014
0.203859
0.206318
0.208778
0.211238
0.213697
0.216157
0.218617
0.221077
0.223536
0.225995
0.228454
0.230913
0.233371
0.235828
0.238284
0.24074
0.243194
0.245647
0.248098
0.250547
0.252995
0.255439
0.257881
0.26032
0.262754
0.265183
0.267605
0.270019
0.272421
0.274793
0.277115
0.279359
0.281496
0.283537
0.285507
0.287425
0.289314
0.291188
0.293059
0.294942
0.296835
0.298736
0.300648
0.302581
0.304541
0.306526
0.308536
0.310571
0.312636
0.314729
0.316853
0.319005
0.321186
0.323395
0.325631
0.327892
0.330176
0.332481
0.334804
0.337143
0.339498
0.341865
0.344243
0.34663
0.349027
0.35143
0.35384
0.356255
0.358674
0.361097
0.363523
0.365953
0.368385
0.37082
0.373256
0.375695
0.378136
0.380578
0.383023
0.38547
0.387918
0.39037
0.392823
0.395279
0.397736
0.400194
0.402653
0.405113
0.407573
0.410032
0.412492
0.414952
0.417411
0.419871
0.422331
0.42479
0.42725
0.42971
0.43217
0.43463
0.437089
0.439549
0.442009
0.444469
0.446929
0.449388
0.451848
0.454308
0.456768
0.459228
0.461687
0.464147
0.466607
0.469067
0.471527
0.473986
0.476446
0.478906
0.481366
0.483826
0.486285
0.488745
0.491205
0.493665
0.496125
0.498584
0.501044
0.503504
0.505964
0.508424
0.510883
0.513343
0.515803
0.518263
0.520723
0.523182
0.525642