/*--------------------------------*- C++ -*----------------------------------*\
  =========                 |
  \\      /  F ield         | OpenFOAM: The Open Source CFD Toolbox
   \\    /   O peration     | Website:  https://openfoam.org
    \\  /    A nd           | Version:  7
     \\/     M anipulation  |
\*---------------------------------------------------------------------------*/
FoamFile
{
    version     2.0;
    format      ascii;
    class       volScalarField;
    location    "2000";
    object      Cz;
}
// * * * * * * * * * * * * * * * * * * * * * * * * * * * * * * * * * * * * * //

dimensions      [0 1 0 0 0 0 0];

internalField   nonuniform List<scalar> 
51626
(
2.17492e-05
2.17492e-05
2.17492e-05
2.17492e-05
2.17492e-05
2.17492e-05
2.17492e-05
2.17492e-05
2.17492e-05
2.17492e-05
2.17492e-05
2.17492e-05
2.17492e-05
2.17492e-05
2.17492e-05
2.17492e-05
2.17492e-05
2.17492e-05
2.17492e-05
2.17492e-05
2.17492e-05
2.17492e-05
2.17492e-05
2.17492e-05
2.17492e-05
2.17492e-05
2.17492e-05
2.17492e-05
2.17492e-05
2.17492e-05
2.17492e-05
2.17492e-05
2.17492e-05
2.17492e-05
2.17492e-05
2.17492e-05
2.17492e-05
2.17492e-05
2.17492e-05
2.17492e-05
2.17492e-05
2.17492e-05
2.17492e-05
2.17492e-05
2.17492e-05
2.17492e-05
2.17492e-05
2.17492e-05
2.17492e-05
2.17492e-05
2.17492e-05
2.17492e-05
2.17492e-05
2.17492e-05
2.17492e-05
2.17492e-05
2.17492e-05
2.17492e-05
2.17492e-05
2.17492e-05
2.17492e-05
2.17492e-05
2.17492e-05
2.17492e-05
2.17492e-05
2.17492e-05
2.17492e-05
2.17492e-05
2.17492e-05
2.17492e-05
2.17492e-05
2.17492e-05
2.17492e-05
2.17492e-05
2.17492e-05
2.17492e-05
2.17492e-05
2.17492e-05
2.17492e-05
2.17492e-05
2.17492e-05
2.17492e-05
2.17492e-05
2.17492e-05
2.17492e-05
2.17492e-05
2.17492e-05
2.17492e-05
2.17492e-05
2.17492e-05
2.17492e-05
2.17492e-05
2.17492e-05
2.17492e-05
2.17492e-05
2.17492e-05
2.17492e-05
2.17492e-05
2.17492e-05
2.17492e-05
2.17492e-05
2.17492e-05
2.17492e-05
2.17492e-05
2.17492e-05
2.17492e-05
2.17492e-05
2.17492e-05
2.17492e-05
2.17492e-05
2.17492e-05
2.17492e-05
2.17492e-05
2.17492e-05
2.17492e-05
2.17492e-05
2.17492e-05
2.17492e-05
2.17492e-05
2.17492e-05
2.17492e-05
2.17492e-05
2.17492e-05
2.17492e-05
2.17492e-05
2.17492e-05
2.17492e-05
2.17492e-05
2.17492e-05
2.17492e-05
2.17492e-05
2.17492e-05
2.17492e-05
2.17492e-05
2.17492e-05
2.17492e-05
2.17492e-05
2.17492e-05
2.17492e-05
2.17492e-05
2.17492e-05
2.17492e-05
2.17492e-05
2.17492e-05
2.17492e-05
2.17492e-05
2.17492e-05
2.17492e-05
2.17492e-05
2.17492e-05
2.17492e-05
2.17492e-05
2.17492e-05
2.17492e-05
2.17492e-05
2.17492e-05
2.17492e-05
2.17492e-05
2.17492e-05
2.17492e-05
2.17492e-05
2.17492e-05
2.17492e-05
2.17492e-05
2.17492e-05
2.17492e-05
2.17492e-05
2.17492e-05
2.17492e-05
2.17492e-05
2.17492e-05
2.17492e-05
2.17492e-05
2.17492e-05
2.17492e-05
2.17492e-05
2.17492e-05
2.17492e-05
2.17492e-05
2.17492e-05
2.17492e-05
2.17492e-05
2.17492e-05
2.17492e-05
2.17492e-05
2.17492e-05
2.17492e-05
2.17492e-05
2.17492e-05
2.17492e-05
2.17492e-05
2.17492e-05
2.17492e-05
2.17492e-05
2.17492e-05
2.17492e-05
2.17492e-05
2.17492e-05
2.17492e-05
2.17492e-05
2.17492e-05
2.17492e-05
2.17492e-05
2.17492e-05
2.17492e-05
2.17492e-05
2.17492e-05
2.17492e-05
2.17492e-05
2.17492e-05
2.17492e-05
2.17492e-05
2.17492e-05
2.17492e-05
2.17492e-05
2.17492e-05
2.17492e-05
2.17492e-05
2.17492e-05
2.17492e-05
2.17492e-05
2.17492e-05
2.17492e-05
2.17492e-05
2.17492e-05
2.17492e-05
2.17492e-05
2.17492e-05
2.17492e-05
2.17492e-05
2.17492e-05
2.17492e-05
2.17492e-05
2.17492e-05
2.17492e-05
2.17492e-05
2.17492e-05
2.17492e-05
2.17463e-05
2.17378e-05
2.17265e-05
2.17152e-05
2.17039e-05
2.16925e-05
2.16812e-05
2.16698e-05
2.16585e-05
2.16471e-05
2.16358e-05
2.16244e-05
2.16131e-05
2.16017e-05
2.15904e-05
2.15785e-05
2.15655e-05
2.15508e-05
2.15346e-05
2.15168e-05
2.14975e-05
2.14768e-05
2.14546e-05
2.14312e-05
2.14065e-05
2.13807e-05
2.1354e-05
2.13263e-05
2.1298e-05
2.12689e-05
2.12393e-05
2.12093e-05
2.11791e-05
2.11488e-05
2.11185e-05
2.10883e-05
2.10585e-05
2.10291e-05
2.10003e-05
2.09721e-05
2.09448e-05
2.09184e-05
2.0893e-05
2.08688e-05
2.08457e-05
2.0824e-05
2.08037e-05
2.07848e-05
2.07674e-05
2.07515e-05
2.07372e-05
2.07244e-05
2.07128e-05
2.07015e-05
2.06903e-05
2.06791e-05
2.06679e-05
2.06567e-05
2.06454e-05
2.06342e-05
2.0623e-05
2.06118e-05
2.06005e-05
2.05893e-05
2.05781e-05
2.05668e-05
2.05556e-05
2.05444e-05
2.05331e-05
2.05219e-05
2.05106e-05
2.04994e-05
2.04882e-05
2.04769e-05
2.04657e-05
2.04544e-05
2.04431e-05
2.04319e-05
2.04206e-05
2.04094e-05
2.03981e-05
2.03868e-05
2.03756e-05
2.03643e-05
2.0353e-05
2.03418e-05
2.03305e-05
2.03192e-05
2.0308e-05
2.02967e-05
2.02854e-05
2.02741e-05
2.02628e-05
2.02516e-05
2.02403e-05
2.0229e-05
2.02177e-05
2.02064e-05
2.01951e-05
2.01838e-05
2.01725e-05
6.1376e-05
0.000261393
0.000649957
0.00118018
0.00184995
0.00265017
0.0035658
0.00458162
0.00568241
0.00685228
0.00807707
0.00934528
0.0106451
0.0119637
0.0132909
0.0146193
0.0159398
0.0172429
0.0185236
0.0197772
0.0209853
0.0221312
0.0232285
0.0242938
0.0253266
0.0263272
0.0272988
0.0282413
0.0291561
0.0300562
0.0309482
0.0318239
0.0326718
0.0334861
0.0342699
0.0350287
0.0357645
0.0364761
0.0371633
0.0378271
0.0384691
0.0390902
0.0396907
0.0402718
0.040835
0.0413815
0.0419122
0.0424278
0.0429287
0.0434155
0.0438886
0.0443486
0.0447959
0.0452309
0.0456539
0.0460653
0.0464656
0.0468555
0.0472354
0.0476055
0.0479652
0.048314
0.048652
0.0489798
0.0492975
0.0496047
0.0499008
0.0501863
0.0504618
0.050727
0.0509812
0.0512242
0.0514567
0.0516792
0.0518911
0.0520916
0.0522811
0.0524605
0.0526295
0.0527869
0.0529321
0.0530661
0.0531901
0.0533035
0.0534044
0.0534921
0.0535674
0.0536309
0.0536827
0.0537225
0.0537503
0.0537655
0.0537678
0.0537567
0.053732
0.053694
0.0536429
0.0535777
0.0534967
0.0533997
0.0532875
0.05316
0.053015
0.0528504
0.0526655
0.0524602
0.052234
0.0519858
0.0517146
0.0514191
0.0510968
0.0507429
0.0503522
0.0499231
0.0494548
0.0489254
0.0482794
0.0474768
0.0464786
0.0452677
0.0438978
0.0424252
0.0408865
0.0393105
0.0377168
0.036121
0.0345378
0.032968
0.0314065
0.0298592
0.0283386
0.0268521
0.0254
0.023982
0.0226017
0.0212644
0.0199739
0.0187326
0.0175428
0.0164063
0.0153251
0.0143003
0.0133323
0.0124201
0.0115612
0.0107527
0.0099934
0.00928144
0.00861304
0.00798447
0.00739362
0.00683839
0.00631579
0.00582221
0.00535406
0.00490902
0.00448578
0.00408303
0.00369918
0.00333228
0.00298071
0.0026437
0.00232167
0.00201566
0.00172599
0.00145328
0.00120013
0.000969956
0.000765744
0.000590215
0.000445671
0.000332921
0.000250982
0.000197274
0.000165014
0.000142003
0.000119636
9.69449e-05
7.12746e-05
4.1735e-05
2.33589e-05
2.01598e-05
2.01598e-05
2.01598e-05
2.01598e-05
2.01598e-05
2.01598e-05
2.01598e-05
2.01598e-05
2.01598e-05
2.01598e-05
2.01598e-05
2.01598e-05
2.01598e-05
2.01598e-05
2.01598e-05
2.01598e-05
2.01598e-05
2.01598e-05
2.01598e-05
2.01598e-05
2.01598e-05
2.01598e-05
2.01598e-05
2.01598e-05
2.01598e-05
2.01598e-05
2.01598e-05
2.01598e-05
2.01598e-05
2.01598e-05
2.01598e-05
2.01598e-05
2.01598e-05
2.01598e-05
2.01598e-05
2.01598e-05
2.01598e-05
2.01598e-05
2.01598e-05
2.01598e-05
2.01598e-05
2.01598e-05
2.01598e-05
2.01598e-05
2.01598e-05
2.01598e-05
2.01598e-05
2.01598e-05
2.01598e-05
2.01598e-05
2.01598e-05
2.01598e-05
2.01598e-05
2.01598e-05
2.01598e-05
2.01598e-05
2.01598e-05
2.01598e-05
2.01598e-05
2.01598e-05
2.01598e-05
2.01598e-05
2.01598e-05
2.01598e-05
2.01598e-05
2.01598e-05
2.01598e-05
2.01598e-05
2.01598e-05
2.01598e-05
2.01598e-05
2.01598e-05
2.01598e-05
2.01598e-05
2.01598e-05
2.01598e-05
2.01598e-05
2.01598e-05
2.01598e-05
2.01598e-05
2.01598e-05
2.01598e-05
2.01598e-05
2.01598e-05
2.01598e-05
2.01598e-05
2.01598e-05
2.01598e-05
2.01598e-05
2.01598e-05
2.01598e-05
2.01598e-05
2.01606e-05
2.0165e-05
2.01755e-05
2.01928e-05
2.02165e-05
2.02457e-05
2.02793e-05
2.0316e-05
2.03546e-05
2.03941e-05
6.73557e-05
6.73557e-05
6.73557e-05
6.73557e-05
6.73557e-05
6.73557e-05
6.73557e-05
6.73557e-05
6.73557e-05
6.73557e-05
6.73557e-05
6.73557e-05
6.73557e-05
6.73557e-05
6.73557e-05
6.73557e-05
6.73557e-05
6.73557e-05
6.73557e-05
6.73557e-05
6.73557e-05
6.73557e-05
6.73557e-05
6.73557e-05
6.73557e-05
6.73557e-05
6.73557e-05
6.73557e-05
6.73557e-05
6.73557e-05
6.73557e-05
6.73557e-05
6.73557e-05
6.73557e-05
6.73557e-05
6.73557e-05
6.73557e-05
6.73557e-05
6.73557e-05
6.73557e-05
6.73557e-05
6.73557e-05
6.73557e-05
6.73557e-05
6.73557e-05
6.73557e-05
6.73557e-05
6.73557e-05
6.73557e-05
6.73557e-05
6.73557e-05
6.73557e-05
6.73557e-05
6.73557e-05
6.73557e-05
6.73557e-05
6.73557e-05
6.73557e-05
6.73557e-05
6.73557e-05
6.73557e-05
6.73557e-05
6.73557e-05
6.73557e-05
6.73557e-05
6.73557e-05
6.73557e-05
6.73557e-05
6.73557e-05
6.73557e-05
6.73557e-05
6.73557e-05
6.73557e-05
6.73557e-05
6.73557e-05
6.73557e-05
6.73557e-05
6.73557e-05
6.73557e-05
6.73557e-05
6.73557e-05
6.73557e-05
6.73557e-05
6.73557e-05
6.73557e-05
6.73557e-05
6.73557e-05
6.73557e-05
6.73557e-05
6.73557e-05
6.73557e-05
6.73557e-05
6.73557e-05
6.73557e-05
6.73557e-05
6.73557e-05
6.73557e-05
6.73557e-05
6.73557e-05
6.73557e-05
6.73557e-05
6.73557e-05
6.73557e-05
6.73557e-05
6.73557e-05
6.73557e-05
6.73557e-05
6.73557e-05
6.73557e-05
6.73557e-05
6.73557e-05
6.73557e-05
6.73557e-05
6.73557e-05
6.73557e-05
6.73557e-05
6.73557e-05
6.73557e-05
6.73557e-05
6.73557e-05
6.73557e-05
6.73557e-05
6.73557e-05
6.73557e-05
6.73557e-05
6.73557e-05
6.73557e-05
6.73557e-05
6.73557e-05
6.73557e-05
6.73557e-05
6.73557e-05
6.73557e-05
6.73557e-05
6.73557e-05
6.73557e-05
6.73557e-05
6.73557e-05
6.73557e-05
6.73557e-05
6.73557e-05
6.73557e-05
6.73557e-05
6.73557e-05
6.73557e-05
6.73557e-05
6.73557e-05
6.73557e-05
6.73557e-05
6.73557e-05
6.73557e-05
6.73557e-05
6.73557e-05
6.73557e-05
6.73557e-05
6.73557e-05
6.73557e-05
6.73557e-05
6.73557e-05
6.73557e-05
6.73557e-05
6.73557e-05
6.73557e-05
6.73557e-05
6.73557e-05
6.73557e-05
6.73557e-05
6.73557e-05
6.73557e-05
6.73557e-05
6.73557e-05
6.73557e-05
6.73557e-05
6.73557e-05
6.73557e-05
6.73557e-05
6.73557e-05
6.73557e-05
6.73557e-05
6.73557e-05
6.73557e-05
6.73557e-05
6.73557e-05
6.73557e-05
6.73557e-05
6.73557e-05
6.73557e-05
6.73557e-05
6.73557e-05
6.73557e-05
6.73557e-05
6.73557e-05
6.73557e-05
6.73557e-05
6.73557e-05
6.73557e-05
6.73557e-05
6.73557e-05
6.73557e-05
6.73557e-05
6.73557e-05
6.73557e-05
6.73557e-05
6.73557e-05
6.73557e-05
6.73557e-05
6.73557e-05
6.73557e-05
6.73557e-05
6.73557e-05
6.73557e-05
6.73557e-05
6.73557e-05
6.73557e-05
6.73557e-05
6.73557e-05
6.73557e-05
6.73557e-05
6.73557e-05
6.73557e-05
6.73557e-05
6.73557e-05
6.73557e-05
6.73557e-05
6.73557e-05
6.73557e-05
6.73557e-05
6.73557e-05
6.73557e-05
6.73557e-05
6.73557e-05
6.73557e-05
6.73557e-05
6.73557e-05
6.73557e-05
6.73557e-05
6.73557e-05
6.73557e-05
6.7342e-05
6.73011e-05
6.72464e-05
6.71918e-05
6.71371e-05
6.70824e-05
6.70278e-05
6.6973e-05
6.69183e-05
6.68636e-05
6.68089e-05
6.67541e-05
6.66994e-05
6.66446e-05
6.65898e-05
6.65336e-05
6.64736e-05
6.64086e-05
6.63388e-05
6.62643e-05
6.61851e-05
6.61015e-05
6.60134e-05
6.59214e-05
6.58258e-05
6.57267e-05
6.56246e-05
6.55199e-05
6.54129e-05
6.53038e-05
6.51932e-05
6.50813e-05
6.49688e-05
6.48559e-05
6.47432e-05
6.4631e-05
6.45198e-05
6.441e-05
6.4302e-05
6.41959e-05
6.40924e-05
6.3992e-05
6.38945e-05
6.38006e-05
6.37104e-05
6.36242e-05
6.35423e-05
6.34648e-05
6.33918e-05
6.33235e-05
6.326e-05
6.32011e-05
6.31458e-05
6.30916e-05
6.30375e-05
6.29835e-05
6.29294e-05
6.28753e-05
6.28212e-05
6.27671e-05
6.27129e-05
6.26588e-05
6.26047e-05
6.25505e-05
6.24964e-05
6.24422e-05
6.2388e-05
6.23338e-05
6.22796e-05
6.22254e-05
6.21712e-05
6.2117e-05
6.20627e-05
6.20085e-05
6.19542e-05
6.19e-05
6.18457e-05
6.17914e-05
6.17371e-05
6.16828e-05
6.16285e-05
6.15742e-05
6.15199e-05
6.14656e-05
6.14112e-05
6.13569e-05
6.13025e-05
6.12482e-05
6.11938e-05
6.11394e-05
6.10851e-05
6.10307e-05
6.09763e-05
6.09218e-05
6.08674e-05
6.0813e-05
6.07586e-05
6.07041e-05
6.06497e-05
6.05952e-05
6.05408e-05
0.000101701
0.000301689
0.000690214
0.00122038
0.00189008
0.00269022
0.00360575
0.00462147
0.00572214
0.00689188
0.00811655
0.00938462
0.0106843
0.0120027
0.0133298
0.0146581
0.0159785
0.0172814
0.0185619
0.0198154
0.0210234
0.0221692
0.0232664
0.0243315
0.0253643
0.0263647
0.0273363
0.0282786
0.0291934
0.0300934
0.0309853
0.0318608
0.0327087
0.0335229
0.0343066
0.0350654
0.0358011
0.0365126
0.0371997
0.0378634
0.0385054
0.0391264
0.0397269
0.0403079
0.040871
0.0414175
0.0419481
0.0424637
0.0429645
0.0434513
0.0439243
0.0443842
0.0448315
0.0452665
0.0456894
0.0461007
0.046501
0.0468909
0.0472708
0.0476408
0.0480005
0.0483493
0.0486872
0.049015
0.0493326
0.0496397
0.0499358
0.0502213
0.0504967
0.0507619
0.0510161
0.0512591
0.0514916
0.051714
0.0519259
0.0521264
0.0523159
0.0524952
0.0526642
0.0528216
0.0529668
0.0531008
0.0532248
0.0533381
0.053439
0.0535268
0.053602
0.0536655
0.0537173
0.0537572
0.0537849
0.0538001
0.0538024
0.0537913
0.0537666
0.0537286
0.0536776
0.0536123
0.0535313
0.0534343
0.0533222
0.0531947
0.0530497
0.0528851
0.0527003
0.052495
0.0522687
0.0520206
0.0517495
0.051454
0.0511317
0.0507778
0.0503872
0.0499582
0.0494899
0.0489606
0.0483146
0.0475121
0.046514
0.0453033
0.0439335
0.042461
0.0409225
0.0393467
0.0377532
0.0361575
0.0345744
0.0330048
0.0314435
0.0298964
0.028376
0.0268897
0.0254377
0.0240198
0.0226396
0.0213025
0.0200121
0.018771
0.0175813
0.016445
0.0153638
0.0143391
0.0133712
0.0124591
0.0116003
0.010792
0.0100327
0.0093208
0.00865248
0.00802397
0.00743318
0.00687801
0.00635547
0.00586193
0.00539383
0.00494884
0.00452564
0.00412293
0.00373912
0.00337225
0.00302072
0.00268375
0.00236175
0.00205576
0.00176612
0.00149344
0.00124032
0.00101017
0.000805984
0.000630473
0.000485945
0.000373207
0.000291276
0.000237575
0.000205318
0.00018231
0.000159945
0.000137256
0.000111589
8.20523e-05
6.36782e-05
6.04795e-05
6.04795e-05
6.04795e-05
6.04795e-05
6.04795e-05
6.04795e-05
6.04795e-05
6.04795e-05
6.04795e-05
6.04795e-05
6.04795e-05
6.04795e-05
6.04795e-05
6.04795e-05
6.04795e-05
6.04795e-05
6.04795e-05
6.04795e-05
6.04795e-05
6.04795e-05
6.04795e-05
6.04795e-05
6.04795e-05
6.04795e-05
6.04795e-05
6.04795e-05
6.04795e-05
6.04795e-05
6.04795e-05
6.04795e-05
6.04795e-05
6.04795e-05
6.04795e-05
6.04795e-05
6.04795e-05
6.04795e-05
6.04795e-05
6.04795e-05
6.04795e-05
6.04795e-05
6.04795e-05
6.04795e-05
6.04795e-05
6.04795e-05
6.04795e-05
6.04795e-05
6.04795e-05
6.04795e-05
6.04795e-05
6.04795e-05
6.04795e-05
6.04795e-05
6.04795e-05
6.04795e-05
6.04795e-05
6.04795e-05
6.04795e-05
6.04795e-05
6.04795e-05
6.04795e-05
6.04795e-05
6.04795e-05
6.04795e-05
6.04795e-05
6.04795e-05
6.04795e-05
6.04795e-05
6.04795e-05
6.04795e-05
6.04795e-05
6.04795e-05
6.04795e-05
6.04795e-05
6.04795e-05
6.04795e-05
6.04795e-05
6.04795e-05
6.04795e-05
6.04795e-05
6.04795e-05
6.04795e-05
6.04795e-05
6.04795e-05
6.04795e-05
6.04795e-05
6.04795e-05
6.04795e-05
6.04795e-05
6.04795e-05
6.04795e-05
6.04795e-05
6.04795e-05
6.04819e-05
6.0495e-05
6.05266e-05
6.05784e-05
6.06495e-05
6.07372e-05
6.08378e-05
6.09479e-05
6.10639e-05
6.11822e-05
0.00011738
0.00011738
0.00011738
0.00011738
0.00011738
0.00011738
0.00011738
0.00011738
0.00011738
0.00011738
0.00011738
0.00011738
0.00011738
0.00011738
0.00011738
0.00011738
0.00011738
0.00011738
0.00011738
0.00011738
0.00011738
0.00011738
0.00011738
0.00011738
0.00011738
0.00011738
0.00011738
0.00011738
0.00011738
0.00011738
0.00011738
0.00011738
0.00011738
0.00011738
0.00011738
0.00011738
0.00011738
0.00011738
0.00011738
0.00011738
0.00011738
0.00011738
0.00011738
0.00011738
0.00011738
0.00011738
0.00011738
0.00011738
0.00011738
0.00011738
0.00011738
0.00011738
0.00011738
0.00011738
0.00011738
0.00011738
0.00011738
0.00011738
0.00011738
0.00011738
0.00011738
0.00011738
0.00011738
0.00011738
0.00011738
0.00011738
0.00011738
0.00011738
0.00011738
0.00011738
0.00011738
0.00011738
0.00011738
0.00011738
0.00011738
0.00011738
0.00011738
0.00011738
0.00011738
0.00011738
0.00011738
0.00011738
0.00011738
0.00011738
0.00011738
0.00011738
0.00011738
0.00011738
0.00011738
0.00011738
0.00011738
0.00011738
0.00011738
0.00011738
0.00011738
0.00011738
0.00011738
0.00011738
0.00011738
0.00011738
0.00011738
0.00011738
0.00011738
0.00011738
0.00011738
0.00011738
0.00011738
0.00011738
0.00011738
0.00011738
0.00011738
0.00011738
0.00011738
0.00011738
0.00011738
0.00011738
0.00011738
0.00011738
0.00011738
0.00011738
0.00011738
0.00011738
0.00011738
0.00011738
0.00011738
0.00011738
0.00011738
0.00011738
0.00011738
0.00011738
0.00011738
0.00011738
0.00011738
0.00011738
0.00011738
0.00011738
0.00011738
0.00011738
0.00011738
0.00011738
0.00011738
0.00011738
0.00011738
0.00011738
0.00011738
0.00011738
0.00011738
0.00011738
0.00011738
0.00011738
0.00011738
0.00011738
0.00011738
0.00011738
0.00011738
0.00011738
0.00011738
0.00011738
0.00011738
0.00011738
0.00011738
0.00011738
0.00011738
0.00011738
0.00011738
0.00011738
0.00011738
0.00011738
0.00011738
0.00011738
0.00011738
0.00011738
0.00011738
0.00011738
0.00011738
0.00011738
0.00011738
0.00011738
0.00011738
0.00011738
0.00011738
0.00011738
0.00011738
0.00011738
0.00011738
0.00011738
0.00011738
0.00011738
0.00011738
0.00011738
0.00011738
0.00011738
0.00011738
0.00011738
0.00011738
0.00011738
0.00011738
0.00011738
0.00011738
0.00011738
0.00011738
0.00011738
0.00011738
0.00011738
0.00011738
0.00011738
0.00011738
0.00011738
0.00011738
0.00011738
0.00011738
0.00011738
0.00011738
0.00011738
0.00011738
0.00011738
0.00011738
0.00011738
0.00011738
0.00011738
0.00011738
0.00011738
0.00011738
0.00011738
0.00011738
0.00011738
0.00011738
0.00011738
0.00011738
0.00011738
0.00011738
0.00011738
0.00011738
0.00011738
0.00011738
0.00011738
0.00011738
0.00011738
0.000117344
0.000117238
0.000117097
0.000116956
0.000116815
0.000116673
0.000116532
0.000116391
0.000116249
0.000116108
0.000115966
0.000115825
0.000115683
0.000115542
0.0001154
0.000115256
0.000115106
0.000114946
0.000114779
0.000114603
0.000114419
0.000114228
0.000114029
0.000113823
0.000113611
0.000113393
0.00011317
0.000112942
0.000112711
0.000112476
0.000112238
0.000111999
0.000111758
0.000111517
0.000111276
0.000111036
0.000110798
0.000110562
0.00011033
0.000110101
0.000109876
0.000109657
0.000109443
0.000109235
0.000109033
0.000108839
0.000108651
0.000108472
0.0001083
0.000108136
0.00010798
0.000107832
0.00010769
0.00010755
0.00010741
0.000107271
0.000107131
0.000106991
0.000106851
0.000106711
0.000106571
0.000106431
0.000106292
0.000106152
0.000106012
0.000105872
0.000105732
0.000105592
0.000105451
0.000105311
0.000105171
0.000105031
0.000104891
0.000104751
0.000104611
0.00010447
0.00010433
0.00010419
0.00010405
0.000103909
0.000103769
0.000103628
0.000103488
0.000103348
0.000103207
0.000103067
0.000102926
0.000102786
0.000102645
0.000102505
0.000102364
0.000102224
0.000102083
0.000101942
0.000101802
0.000101661
0.00010152
0.00010138
0.000101239
0.000101098
0.000100958
0.000142039
0.000341985
0.000730471
0.00126058
0.00193021
0.00273027
0.0036457
0.00466131
0.00576187
0.00693149
0.00815602
0.00942396
0.0107235
0.0120418
0.0133688
0.0146968
0.0160171
0.0173199
0.0186003
0.0198537
0.0210615
0.0222072
0.0233042
0.0243693
0.0254019
0.0264023
0.0273737
0.028316
0.0292306
0.0301305
0.0310223
0.0318978
0.0327456
0.0335597
0.0343433
0.035102
0.0358376
0.0365491
0.0372361
0.0378998
0.0385417
0.0391626
0.039763
0.040344
0.040907
0.0414534
0.041984
0.0424995
0.0430003
0.043487
0.04396
0.0444199
0.0448671
0.045302
0.0457249
0.0461362
0.0465365
0.0469263
0.0473061
0.0476761
0.0480357
0.0483845
0.0487224
0.0490501
0.0493677
0.0496748
0.0499709
0.0502563
0.0505317
0.0507969
0.051051
0.051294
0.0515265
0.0517489
0.0519607
0.0521612
0.0523507
0.05253
0.052699
0.0528564
0.0530015
0.0531355
0.0532595
0.0533728
0.0534737
0.0535614
0.0536367
0.0537001
0.0537519
0.0537918
0.0538195
0.0538348
0.0538371
0.0538259
0.0538012
0.0537633
0.0537122
0.053647
0.053566
0.053469
0.0533569
0.0532294
0.0530844
0.0529199
0.052735
0.0525297
0.0523035
0.0520554
0.0517843
0.0514889
0.0511666
0.0508128
0.0504222
0.0499932
0.049525
0.0489957
0.0483498
0.0475474
0.0465494
0.0453388
0.0439691
0.0424969
0.0409585
0.0393828
0.0377895
0.036194
0.0346111
0.0330417
0.0314805
0.0299336
0.0284133
0.0269272
0.0254754
0.0240576
0.0226776
0.0213406
0.0200504
0.0188094
0.0176198
0.0164836
0.0154025
0.014378
0.0134102
0.0124981
0.0116394
0.0108312
0.010072
0.00936017
0.00869192
0.00806347
0.00747274
0.00691763
0.00639514
0.00590165
0.0054336
0.00498865
0.0045655
0.00416283
0.00377906
0.00341223
0.00306072
0.00272379
0.00240182
0.00209587
0.00180626
0.00153361
0.00128051
0.00105039
0.000846223
0.000670731
0.000526218
0.000413493
0.000331571
0.000277875
0.000245622
0.000222616
0.000200254
0.000177568
0.000151903
0.00012237
0.000103998
0.000100799
0.000100799
0.000100799
0.000100799
0.000100799
0.000100799
0.000100799
0.000100799
0.000100799
0.000100799
0.000100799
0.000100799
0.000100799
0.000100799
0.000100799
0.000100799
0.000100799
0.000100799
0.000100799
0.000100799
0.000100799
0.000100799
0.000100799
0.000100799
0.000100799
0.000100799
0.000100799
0.000100799
0.000100799
0.000100799
0.000100799
0.000100799
0.000100799
0.000100799
0.000100799
0.000100799
0.000100799
0.000100799
0.000100799
0.000100799
0.000100799
0.000100799
0.000100799
0.000100799
0.000100799
0.000100799
0.000100799
0.000100799
0.000100799
0.000100799
0.000100799
0.000100799
0.000100799
0.000100799
0.000100799
0.000100799
0.000100799
0.000100799
0.000100799
0.000100799
0.000100799
0.000100799
0.000100799
0.000100799
0.000100799
0.000100799
0.000100799
0.000100799
0.000100799
0.000100799
0.000100799
0.000100799
0.000100799
0.000100799
0.000100799
0.000100799
0.000100799
0.000100799
0.000100799
0.000100799
0.000100799
0.000100799
0.000100799
0.000100799
0.000100799
0.000100799
0.000100799
0.000100799
0.000100799
0.000100799
0.000100799
0.000100799
0.000100803
0.000100825
0.000100878
0.000100964
0.000101083
0.000101229
0.000101396
0.00010158
0.000101773
0.00010197
0.000172242
0.000172242
0.000172242
0.000172242
0.000172242
0.000172242
0.000172242
0.000172242
0.000172242
0.000172242
0.000172242
0.000172242
0.000172242
0.000172242
0.000172242
0.000172242
0.000172242
0.000172242
0.000172242
0.000172242
0.000172242
0.000172242
0.000172242
0.000172242
0.000172242
0.000172242
0.000172242
0.000172242
0.000172242
0.000172242
0.000172242
0.000172242
0.000172242
0.000172242
0.000172242
0.000172242
0.000172242
0.000172242
0.000172242
0.000172242
0.000172242
0.000172242
0.000172242
0.000172242
0.000172242
0.000172242
0.000172242
0.000172242
0.000172242
0.000172242
0.000172242
0.000172242
0.000172242
0.000172242
0.000172242
0.000172242
0.000172242
0.000172242
0.000172242
0.000172242
0.000172242
0.000172242
0.000172242
0.000172242
0.000172242
0.000172242
0.000172242
0.000172242
0.000172242
0.000172242
0.000172242
0.000172242
0.000172242
0.000172242
0.000172242
0.000172242
0.000172242
0.000172242
0.000172242
0.000172242
0.000172242
0.000172242
0.000172242
0.000172242
0.000172242
0.000172242
0.000172242
0.000172242
0.000172242
0.000172242
0.000172242
0.000172242
0.000172242
0.000172242
0.000172242
0.000172242
0.000172242
0.000172242
0.000172242
0.000172242
0.000172242
0.000172242
0.000172242
0.000172242
0.000172242
0.000172242
0.000172242
0.000172242
0.000172242
0.000172242
0.000172242
0.000172242
0.000172242
0.000172242
0.000172242
0.000172242
0.000172242
0.000172242
0.000172242
0.000172242
0.000172242
0.000172242
0.000172242
0.000172242
0.000172242
0.000172242
0.000172242
0.000172242
0.000172242
0.000172242
0.000172242
0.000172242
0.000172242
0.000172242
0.000172242
0.000172242
0.000172242
0.000172242
0.000172242
0.000172242
0.000172242
0.000172242
0.000172242
0.000172242
0.000172242
0.000172242
0.000172242
0.000172242
0.000172242
0.000172242
0.000172242
0.000172242
0.000172242
0.000172242
0.000172242
0.000172242
0.000172242
0.000172242
0.000172242
0.000172242
0.000172242
0.000172242
0.000172242
0.000172242
0.000172242
0.000172242
0.000172242
0.000172242
0.000172242
0.000172242
0.000172242
0.000172242
0.000172242
0.000172242
0.000172242
0.000172242
0.000172242
0.000172242
0.000172242
0.000172242
0.000172242
0.000172242
0.000172242
0.000172242
0.000172242
0.000172242
0.000172242
0.000172242
0.000172242
0.000172242
0.000172242
0.000172242
0.000172242
0.000172242
0.000172242
0.000172242
0.000172242
0.000172242
0.000172242
0.000172242
0.000172242
0.000172242
0.000172242
0.000172242
0.000172242
0.000172242
0.000172242
0.000172242
0.000172242
0.000172242
0.000172242
0.000172242
0.000172242
0.000172242
0.000172242
0.000172242
0.000172242
0.000172242
0.000172242
0.000172242
0.000172242
0.000172242
0.000172242
0.000172242
0.000172242
0.000172242
0.000172242
0.000172242
0.000172242
0.000172242
0.000172242
0.000172242
0.000172242
0.000172242
0.000172242
0.000172242
0.000172242
0.000172242
0.000172173
0.000171967
0.000171692
0.000171416
0.000171141
0.000170866
0.00017059
0.000170315
0.000170039
0.000169764
0.000169488
0.000169212
0.000168937
0.000168661
0.000168385
0.000168105
0.000167816
0.000167515
0.000167201
0.000166875
0.000166538
0.000166189
0.00016583
0.000165461
0.000165082
0.000164695
0.000164301
0.000163901
0.000163495
0.000163084
0.000162669
0.000162252
0.000161833
0.000161413
0.000160994
0.000160577
0.000160162
0.000159751
0.000159344
0.000158943
0.000158548
0.000158161
0.000157781
0.00015741
0.000157049
0.000156698
0.000156357
0.000156027
0.000155708
0.000155401
0.000155106
0.000154822
0.000154546
0.000154274
0.000154002
0.000153729
0.000153457
0.000153184
0.000152912
0.000152639
0.000152367
0.000152094
0.000151822
0.000151549
0.000151276
0.000151003
0.00015073
0.000150458
0.000150185
0.000149912
0.000149639
0.000149365
0.000149092
0.000148819
0.000148546
0.000148273
0.000147999
0.000147726
0.000147453
0.000147179
0.000146906
0.000146632
0.000146359
0.000146085
0.000145811
0.000145538
0.000145264
0.00014499
0.000144716
0.000144442
0.000144169
0.000143895
0.000143621
0.000143347
0.000143073
0.000142798
0.000142524
0.00014225
0.000141976
0.000141702
0.000141427
0.000182391
0.000382281
0.000770728
0.00130079
0.00197035
0.00277032
0.00368566
0.00470116
0.0058016
0.0069711
0.0081955
0.00946331
0.0107627
0.0120809
0.0134077
0.0147356
0.0160558
0.0173584
0.0186387
0.0198919
0.0210996
0.0222452
0.0233421
0.024407
0.0254396
0.0264398
0.0274112
0.0283533
0.0292679
0.0301677
0.0310594
0.0319348
0.0327824
0.0335965
0.03438
0.0351386
0.0358742
0.0365856
0.0372725
0.0379361
0.0385779
0.0391988
0.0397992
0.0403801
0.040943
0.0414894
0.0420199
0.0425354
0.0430361
0.0435227
0.0439957
0.0444555
0.0449027
0.0453375
0.0457604
0.0461716
0.0465719
0.0469616
0.0473414
0.0477113
0.048071
0.0484197
0.0487576
0.0490852
0.0494029
0.0497099
0.0500059
0.0502913
0.0505667
0.0508318
0.0510859
0.0513289
0.0515614
0.0517837
0.0519955
0.052196
0.0523855
0.0525647
0.0527337
0.0528911
0.0530363
0.0531702
0.0532941
0.0534075
0.0535084
0.0535961
0.0536713
0.0537348
0.0537865
0.0538264
0.0538541
0.0538694
0.0538717
0.0538606
0.0538358
0.0537979
0.0537468
0.0536816
0.0536006
0.0535037
0.0533915
0.0532641
0.0531191
0.0529546
0.0527697
0.0525645
0.0523383
0.0520902
0.0518192
0.0515238
0.0512016
0.0508477
0.0504572
0.0500282
0.0495601
0.0490309
0.048385
0.0475827
0.0465848
0.0453743
0.0440048
0.0425327
0.0409945
0.039419
0.0378259
0.0362306
0.0346478
0.0330786
0.0315176
0.0299708
0.0284507
0.0269647
0.025513
0.0240954
0.0227156
0.0213787
0.0200886
0.0188477
0.0176583
0.0165222
0.0154413
0.0144168
0.0134491
0.0125372
0.0116786
0.0108704
0.0101113
0.00939953
0.00873135
0.00810297
0.0075123
0.00695724
0.00643481
0.00594138
0.00547337
0.00502847
0.00460535
0.00420273
0.00381899
0.0034522
0.00310073
0.00276383
0.00244189
0.00213597
0.00184639
0.00157378
0.0013207
0.00109061
0.000886462
0.000710989
0.000566492
0.000453778
0.000371866
0.000318176
0.000285926
0.000262923
0.000240563
0.000217879
0.000192217
0.000162687
0.000144317
0.000141119
0.000141119
0.000141119
0.000141119
0.000141119
0.000141119
0.000141119
0.000141119
0.000141119
0.000141119
0.000141119
0.000141119
0.000141119
0.000141119
0.000141119
0.000141119
0.000141119
0.000141119
0.000141119
0.000141119
0.000141119
0.000141119
0.000141119
0.000141119
0.000141119
0.000141119
0.000141119
0.000141119
0.000141119
0.000141119
0.000141119
0.000141119
0.000141119
0.000141119
0.000141119
0.000141119
0.000141119
0.000141119
0.000141119
0.000141119
0.000141119
0.000141119
0.000141119
0.000141119
0.000141119
0.000141119
0.000141119
0.000141119
0.000141119
0.000141119
0.000141119
0.000141119
0.000141119
0.000141119
0.000141119
0.000141119
0.000141119
0.000141119
0.000141119
0.000141119
0.000141119
0.000141119
0.000141119
0.000141119
0.000141119
0.000141119
0.000141119
0.000141119
0.000141119
0.000141119
0.000141119
0.000141119
0.000141119
0.000141119
0.000141119
0.000141119
0.000141119
0.000141119
0.000141119
0.000141119
0.000141119
0.000141119
0.000141119
0.000141119
0.000141119
0.000141119
0.000141119
0.000141119
0.000141119
0.000141119
0.000141119
0.000141119
0.000141125
0.000141155
0.000141229
0.00014135
0.000141516
0.00014172
0.000141955
0.000142212
0.000142483
0.000142758
0.000232402
0.000232402
0.000232402
0.000232402
0.000232402
0.000232402
0.000232402
0.000232402
0.000232402
0.000232402
0.000232402
0.000232402
0.000232402
0.000232402
0.000232402
0.000232402
0.000232402
0.000232402
0.000232402
0.000232402
0.000232402
0.000232402
0.000232402
0.000232402
0.000232402
0.000232402
0.000232402
0.000232402
0.000232402
0.000232402
0.000232402
0.000232402
0.000232402
0.000232402
0.000232402
0.000232402
0.000232402
0.000232402
0.000232402
0.000232402
0.000232402
0.000232402
0.000232402
0.000232402
0.000232402
0.000232402
0.000232402
0.000232402
0.000232402
0.000232402
0.000232402
0.000232402
0.000232402
0.000232402
0.000232402
0.000232402
0.000232402
0.000232402
0.000232402
0.000232402
0.000232402
0.000232402
0.000232402
0.000232402
0.000232402
0.000232402
0.000232402
0.000232402
0.000232402
0.000232402
0.000232402
0.000232402
0.000232402
0.000232402
0.000232402
0.000232402
0.000232402
0.000232402
0.000232402
0.000232402
0.000232402
0.000232402
0.000232402
0.000232402
0.000232402