/*--------------------------------*- C++ -*----------------------------------*\
  =========                 |
  \\      /  F ield         | OpenFOAM: The Open Source CFD Toolbox
   \\    /   O peration     | Website:  https://openfoam.org
    \\  /    A nd           | Version:  7
     \\/     M anipulation  |
\*---------------------------------------------------------------------------*/
FoamFile
{
    version     2.0;
    format      ascii;
    class       volScalarField;
    location    "2000";
    object      Dk;
}
// * * * * * * * * * * * * * * * * * * * * * * * * * * * * * * * * * * * * * //

dimensions      [0 2 -3 0 0 0 0];

internalField   nonuniform List<scalar> 
51626
(
18538.3
4307.74
3418.77
3339.76
3207.91
3103.86
3035.51
2992.81
2966.7
2950.48
2939.67
2931.59
2924.71
2918.28
2911.92
2905.52
2899.05
2892.56
2886.11
2879.75
2873.53
2867.49
2861.67
2856.09
2850.75
2845.68
2840.85
2836.29
2831.97
2827.9
2824.06
2820.44
2817.04
2813.83
2810.82
2807.98
2805.32
2802.82
2800.46
2798.24
2796.16
2794.2
2792.35
2790.61
2788.97
2787.42
2785.96
2784.58
2783.28
2782.05
2780.88
2779.78
2778.73
2777.74
2776.8
2775.9
2775.05
2774.23
2773.46
2772.72
2772.01
2771.33
2770.69
2770.06
2769.46
2768.89
2768.33
2767.8
2767.28
2766.78
2766.29
2765.82
2765.36
2764.91
2764.47
2764.04
2763.62
2763.21
2762.81
2762.41
2762.02
2761.63
2761.25
2760.87
2760.5
2760.13
2759.76
2759.4
2759.04
2758.68
2758.32
2757.96
2757.6
2757.25
2756.89
2756.53
2756.17
2755.81
2755.45
2755.09
2754.72
2754.35
2753.98
2753.61
2753.23
2752.85
2752.47
2752.08
2751.69
2751.3
2750.9
2750.49
2750.09
2749.67
2749.25
2748.83
2748.4
2747.96
2747.52
2747.07
2746.61
2746.15
2745.68
2745.2
2744.71
2744.22
2743.72
2743.21
2742.69
2742.16
2741.62
2741.07
2740.52
2739.95
2739.37
2738.78
2738.18
2737.57
2736.95
2736.32
2735.67
2735.01
2734.34
2733.65
2732.95
2732.24
2731.51
2730.77
2730.02
2729.24
2728.46
2727.66
2726.84
2726
2725.15
2724.28
2723.39
2722.49
2721.56
2720.62
2719.66
2718.68
2717.67
2716.65
2715.6
2714.54
2713.45
2712.33
2711.19
2710.03
2708.85
2707.64
2706.4
2705.13
2703.84
2702.52
2701.17
2699.79
2698.39
2696.95
2695.47
2693.97
2692.43
2690.86
2689.25
2687.6
2685.92
2684.2
2682.43
2680.63
2678.79
2676.9
2674.97
2672.99
2670.96
2668.89
2666.77
2664.6
2662.37
2660.09
2657.76
2655.37
2652.92
2650.41
2647.84
2645.2
2642.5
2639.74
2636.9
2633.99
2631.01
2627.95
2624.82
2621.61
2618.31
2614.93
2611.46
2607.91
2604.26
2600.52
2596.68
2592.74
2588.7
2584.56
2580.3
2575.94
2571.46
2566.86
2562.14
2557.3
2552.33
2547.23
2542
2536.63
2531.11
2525.51
2519.47
2514.71
2507.39
2498.2
2490.99
2483.07
2474.74
2466.18
2457.39
2448.41
2439.26
2429.95
2420.46
2410.79
2400.94
2390.88
2380.65
2370.1
2359.15
2347.81
2336.06
2323.9
2311.32
2298.3
2284.86
2271.02
2256.8
2242.2
2227.24
2211.93
2196.28
2180.29
2163.99
2147.38
2130.48
2113.3
2095.85
2078.13
2060.15
2041.95
2023.49
2004.78
1985.89
1966.73
1947.35
1927.76
1907.93
1887.86
1867.54
1847
1826.1
1804.97
1783.23
1760.33
1736.67
1712.5
1687.84
1662.67
1636.98
1610.75
1583.98
1556.68
1528.84
1500.44
1471.5
1441.99
1411.93
1381.31
1350.12
1318.36
1285.64
1252.2
1218.18
1183.59
1148.44
1112.71
1076.41
1039.56
1002.16
964.225
925.775
886.826
847.4
807.52
767.218
726.527
685.488
644.148
602.562
560.798
518.931
477.053
435.275
393.726
352.564
311.99
272.237
233.636
196.51
161.475
128.724
99.8874
70.9498
65.2208
91.0528
100.223
114.437
136.742
165.192
200.209
243.693
297.306
362.358
443.416
546.58
674.905
832.115
1032.07
1282.28
1581.51
1905.26
2310.65
2808.65
3229.39
3620.73
4245.68
4817.52
5381.04
5973.19
6586.09
7056.88
7553.8
8276.36
8982.81
9696.17
10332.1
10881.8
11477.9
12078.6
12596.3
13037.6
13441.5
13826.4
14169.6
14446.9
14671.3
14867.7
15041.5
15193.4
15326.6
15447
15553.5
15648.5
15734.1
15813.6
15886.4
15950.1
16006.8
16063.1
16122.1
16188.6
16272.6
16363.9
16442.1
16505.7
16579
16664
16743.7
16803.8
16856.5
16921.4
16994.4
17050.9
17082.2
17115.4
17163.4
17210.6
17233.3
17237.2
17257.5
17298.4
17321.4
17297.2
17263.7
17265.5
17289.2
17280
17224.2
17162
17100.2
17031.8
16957.5
16880.7
16797.4
16702.5
16586.9
16447
16303.5
16175.5
16041.2
15855.9
15627
15412.2
15220.4
14989.4
14684.4
14328
13949
13539
13081.5
12573.7
12012.2
11398.8
10672.7
9770.85
8736.09
7646.35
6364.86
4412.99
2055.17
728.767
122.766
16.0859
9.19251
6.64617
5.6409
5.18666
5.11416
5.10409
5.17325
5.63055
6.29164
7.00822
7.87773
9.00496
10.5609
12.4028
14.5295
17.0102
19.9309
23.328
27.2415
31.711
36.7838
42.5231
49.0278
56.3931
64.7614
74.0793
84.2392
95.4929
108.09
121.794
136.485
152.407
169.671
188.358
208.368
229.375
251.474
274.789
299.449
325.525
352.725
380.942
409.843
439.642
470.933
503.079
535.38
568.622
603.328
639.724
678.249
720.008
765.29
814.123
867.874
927.034
980.64
1027.08
1071.34
1111.94
1134.69
1181.08
1227.86
1268.35
1304.52
1338.26
1369.54
1398.83
1426.06
1451.4
1474.81
1496.34
1516.01
1533.84
1549.88
1564.21
1576.87
1587.94
1597.48
1605.53
1612.14
1617.36
1621.24
1623.83
1625.2
1625.4
1624.52
1622.6
1619.73
1615.98
1611.39
1606.04
1599.98
1593.28
1585.97
1578.13
1569.81
1561.07
1551.97
1542.56
1532.89
1523.01
1512.97
1502.81
1492.56
1482.27
1471.97
1461.71
1451.5
1441.4
1431.42
1421.59
1411.91
1402.41
1393.09
1383.95
1375.01
1366.29
1357.79
1349.53
1341.53
1333.81
1326.38
1319.25
1312.43
1305.94
1299.77
1293.94
1288.44
1283.27
1278.42
1273.9
1269.7
1265.82
1262.26
1259.01
1256.08
1253.47
1251.17
1249.18
1247.51
1246.15
1245.08
1244.3
1243.8
1243.56
1243.55
1243.76
1244.13
1244.64
1245.21
1245.77
1246.18
1246.37
1246.45
1246.15
1245.07
1241.97
1237.21
1222.42
1210.47
1131.53
1024.96
104078
23992.1
19065.6
18660.3
17897.6
17291.3
16889.6
16635.7
16478.2
16378.9
16312.1
16262.1
16220.2
16181.6
16144
16106.5
16068.9
16031.3
15994.1
15957.5
15921.8
15887.2
15853.8
15821.7
15791.1
15762
15734.3
15708.1
15683.3
15659.9
15637.8
15617
15597.4
15579
15561.6
15545.3
15529.9
15515.5
15501.9
15489.1
15477.1
15465.8
15455.1
15445.1
15435.6
15426.7
15418.2
15410.3
15402.7
15395.6
15388.9
15382.5
15376.5
15370.7
15365.3
15360.1
15355.2
15350.5
15346
15341.7
15337.6
15333.7
15329.9
15326.3
15322.9
15319.5
15316.3
15313.2
15310.2
15307.3
15304.5
15301.8
15299.1
15296.5
15294
15291.5
15289.1
15286.7
15284.4
15282.1
15279.8
15277.6
15275.4
15273.2
15271.1
15269
15266.9
15264.8
15262.7
15260.6
15258.5
15256.5
15254.4
15252.4
15250.3
15248.2
15246.2
15244.1
15242
15239.9
15237.8
15235.7
15233.6
15231.5
15229.3
15227.1
15224.9
15222.7
15220.4
15218.2
15215.9
15213.6
15211.2
15208.8
15206.4
15204
15201.5
15199
15196.5
15193.9
15191.3
15188.6
15185.9
15183.2
15180.4
15177.5
15174.6
15171.7
15168.7
15165.7
15162.6
15159.5
15156.3
15153
15149.7
15146.3
15142.9
15139.4
15135.8
15132.1
15128.4
15124.6
15120.8
15116.8
15112.8
15108.7
15104.5
15100.3
15095.9
15091.5
15087
15082.4
15077.7
15072.9
15068
15063
15057.9
15052.7
15047.3
15041.9
15036.4
15030.7
15025
15019.1
15013.1
15006.9
15000.6
14994.2
14987.7
14981
14974.2
14967.2
14960.1
14952.8
14945.4
14937.8
14930
14922.1
14913.9
14905.6
14897.2
14888.5
14879.6
14870.6
14861.3
14851.8
14842.1
14832.2
14822
14811.6
14801
14790.1
14779
14767.6
14755.9
14744
14731.8
14719.2
14706.4
14693.3
14679.8
14666
14651.9
14637.4
14622.6
14607.4
14591.8
14575.9
14559.5
14542.8
14525.6
14507.9
14489.9
14471.3
14452.3
14432.8
14412.9
14392.4
14371.3
14349.7
14327.6
14304.9
14281.6
14257.7
14233.2
14208
14182.2
14155.7
14128.5
14100.6
14071.9
14042.5
14012.4
13981.4
13949.6
13917.4
13882.6
13854.6
13813.6
13761.4
13718.3
13672.1
13624.1
13574.6
13523.7
13471.8
13419
13365.2
13310.4
13254.6
13197.7
13139.6
13080.7
13019.8
12956.7
12891.2
12823.3
12752.9
12680.1
12604.7
12526.8
12446.6
12364.1
12279.5
12192.7
12104
12013.4
11920.8
11826.5
11730.4
11632.7
11533.5
11432.9
11330.7
11227.3
11122.6
11016.6
10909.3
10801
10691.5
10580.8
10469
10356
10241.9
10126.6
10010.1
9891.83
9772.35
9649.72
9520.91
9388.05
9252.47
9114.24
8973.24
8829.41
8682.74
8533.2
8380.78
8225.48
8067.26
7906.12
7742.06
7575.05
7405.1
7232.22
7056.35
6875.47
6690.84
6503.22
6312.72
6119.34
5923.11
5724.06
5522.28
5317.83
5110.83
4901.36
4689.56
4475.57
4259.56
4041.7
3822.21
3601.35
3379.39
3156.65
2933.53
2710.45
2487.93
2266.57
2047.07
1830.27
1617.23
1409.14
1207.7
1014.53
832.743
663.232
514.287
365.215
335.208
467.06
514.585
587.811
702.855
850.067
1032.02
1259.03
1540.56
1884.55
2316.05
2869.23
3564.06
4424.17
5527.25
6922.18
8614.09
10472.3
12810.5
15732.1
18313
20682.4
24199.1
27509.2
30837.2
34304
37881.4
40687
43503.6
47573.4
51791.9
56250.2
60268.4
63594.6
66944.4
70336.9
73352.5
75960
78292.6
80453.7
82375.5
83938.9
85189.5
86243.2
87155.7
87963
88684.4
89338.3
89915.7
90426.9
90882.8
91304.1
91692.7
92035.2
92335.3
92625.7
92933.5
93294.8
93767
94301.4
94776.7
95159.9
95555.5
96021.7
96483.8
96851.3
97148.6
97483.5
97884.3
98222
98423.1
98583.5
98810.3
99067.5
99219.5
99244.1
99305.5
99500.3
99644.4
99549.6
99323.2
99234.7
99331.5
99316.7
99044.6
98639.4
98195.9
97740.8
97279.4
96810.6
96305.6
95734.3
95045.5
94208.6
93320.7
92507.3
91695.4
90636.8
89296.6
87954.6
86737.2
85375
83621.9
81512.2
79204.5
76711.5
73963.3
70930.2
67592.6
63957
59714.7
54489
48431.3
41996.7
34639.9
23858.3
10882.4
3761.77
636.098
83.464
47.3324
34.1966
29.0107
26.6684
26.2911
26.2371
26.5903
28.9389
32.3356
36.0192
40.49
46.2864
54.2884
63.7621
74.7044
87.4716
102.508
120.002
140.163
163.198
189.354
218.964
252.544
290.597
333.853
382.039
434.636
492.968
558.293
629.397
705.718
788.531
878.436
975.835
1080.17
1189.83
1305.31
1427.3
1556.47
1693.12
1835.72
1983.62
2135.22
2291.72
2455.89
2624.23
2793.4
2967.49
3149.16
3339.67
3541.61
3760.66
3998.46
4256.12
4540.66
4850.37
5129.29
5371.88
5600.72
5805.25
5924.69
6165.93
6405.79
6612.16
6795.96
6966.52
7123.57
7269.72
7404.59
7529.13
7643.16
7747.06
7840.86
7924.87
7999.37
8064.77
8121.46
8169.84
8210.28
8243.1
8268.61
8287.11
8298.92
8304.37
8303.83
8297.68
8286.3
8270.1
8249.44
8224.71
8196.25
8164.39
8129.45
8091.72
8051.48
8009.04
7964.7
7918.75
7871.47
7823.14
7773.97
7724.24
7674.12
7623.82
7573.52
7523.42
7473.64
7424.38
7375.75
7327.92
7280.98
7235.06
7190.17
7146.37
7103.66
7062.08
7021.65
6982.44
6944.49
6907.88
6872.65
6838.9
6806.66
6776.01
6746.98
6719.62
6693.95
6669.98
6647.69
6627.09
6608.13
6590.81
6575.09
6560.98
6548.45
6537.51
6528.15
6520.37
6514.15
6509.51
6506.41
6504.84
6504.76
6506.11
6508.83
6512.84
6518
6524.18
6531.18
6538.77
6546.59
6554.24
6561.01
6566.44
6571.18
6573.86
6572.29
6559.83
6538.03
6463.94
6403.38
5999.37
5431.61
179455
52898.1
41238.8
40553.5
39476.3
38498.3
37815.2
37369.5
37082.3
36892.3
36758.3
36655
36567.5
36487.9
36411.9
36337.7
36264.5
36192.5
36121.7
36052.5
35985.3
35920.3
35857.7
35797.8
35740.5
35685.9
35634
35584.8
35538.2
35494.1
35452.5
35413.2
35376.1
35341.2
35308.2
35277.2
35248
35220.4
35194.5
35170.1
35147
35125.3
35104.8
35085.5
35067.3
35050
35033.8
35018.4
35003.8
34990.1
34977
34964.6
34952.9
34941.8
34931.2
34921.1
34911.5
34902.4
34893.7
34885.4
34877.4
34869.8
34862.5
34855.5
34848.8
34842.3
34836
34830
34824.2
34818.6
34813.1
34807.8
34802.6
34797.6
34792.7
34787.9
34783.2
34778.6
34774.1
34769.7
34765.3
34761
34756.8
34752.6
34748.5
34744.4
34740.3
34736.3
34732.3
34728.3
34724.3
34720.4
34716.4
34712.5
34708.6
34704.6
34700.7
34696.7
34692.7
34688.8
34684.7
34680.7
34676.7
34672.6
34668.4
34664.3
34660.1
34655.9
34651.6
34647.3
34642.9
34638.5
34634
34629.5
34624.9
34620.3
34615.6
34610.8
34606
34601.1
34596.1
34591
34585.9
34580.7
34575.4
34570
34564.5
34558.9
34553.3
34547.5
34541.6
34535.6
34529.6
34523.4
34517.1
34510.6
34504.1
34497.4
34490.6
34483.7
34476.6
34469.4
34462.1
34454.6
34447
34439.2
34431.2
34423.1
34414.8
34406.4
34397.8
34389
34380.1
34370.9
34361.6
34352.1
34342.3
34332.4
34322.3
34312
34301.4
34290.6
34279.6
34268.4
34256.9
34245.2
34233.2
34221
34208.5
34195.7
34182.7
34169.4
34155.7
34141.8
34127.6
34113.1
34098.2
34083
34067.5
34051.6
34035.4
34018.8
34001.8
33984.5
33966.7
33948.5
33929.9
33910.9
33891.4
33871.5
33851.1
33830.2
33808.8
33786.9
33764.5
33741.6
33718.1
33694
33669.3
33644
33618.1
33591.6
33564.4
33536.5
33507.9
33478.6
33448.6
33417.8
33386.2
33353.9
33320.7
33286.6
33251.7
33215.8
33179
33141.3
33102.6
33062.9
33022.1
32980.3
32937.3
32893.3
32848
32801.6
32753.9
32704.9
32654.6
32603
32550
32495.6
32439.7
32382.3
32323.4
32262.9
32200.8
32137.2
32070
32011.8
31933.7
31839.2
31754.4
31661.6
31566
31468.2
31367.6
31264.6
31159.5
31052.2
30942.6
30830.6
30716.1
30599.1
30479.7
30356.8
30230.1
30099.4
29964.5
29825.2
29681.6
29533.2
29380.2
29222.6
29060.6
28894.1
28723.1
28547.7
28367.9
28183.6
27995
27801.9
27604.6
27403.1
27197.3
26987.2
26773
26554.8
26332.4
26105.8
25875.4
25640.8
25402
25159.3
24912.3
24661.1
24405.7
24146.2
23881.1
23611.7
23334.5
23043.7
22743.6
22436.7
22122.7
21801.6
21473.1
21137.1
20793.6
20442.4
20083.5
19716.8
19342.2
18959.5
18568.8
18169.9
17762.8
17347.4
16919
16480.6
16033.7
15578.3
15114.4
14642.1
14161.3
13672.2
13175
12669.9
12157
11636.6
11109.2
10575
10034.7
9488.75
8937.85
8382.81
7824.58
7264.27
6703.2
6142.92
5585.23
5032.29
4486.64
3951.37
3430.03
2927.35
2447.86
1999.53
1584.83
1223.26
866.448
788.342
1084.47
1200.35
1373.21
1643.35
1992.11
2426.91
2973.72
3657.9
4502.64
5568.22
6936.05
8660.35
10803.2
13527.9
16924.4
21011
25490.7
30894.7
37341.2
43620.6
49950
57403.7
63944.2
70657.8
77568.7
84257.5
89951.7
95497.7
101414
107399
114647
122365
129097
134902
139760
144058
148152
151909
155168
157907
160168
162063
163619
164829
165834
166758
167629
168423
169144
169789
170374
170917
171424
171895
172330
172750
173210
173784
174473
175237
175991
176672
177282
177911
178571
179182
179696
180165
180664
181158
181557
181830
182081
182376
182638
182792
182879
183006
183141
183137
182936
182703
182625
182596
182344
181746
180991
180256
179555
178833
178036
177114
176039
174830
173541
172199
170745
169113
167284
165271
163099
160726
157990
154760
151022
146827
142158
136950
131141
124382
116168
106227
94493.2
80123.7
58521
27886
8972.93
1518.85
200.183
112.442
81.0868
68.6994
63.1187
62.1993
62.0577
62.889
68.4329
76.4579
85.1759
95.7693
109.51
128.485
150.967
176.964
207.336
243.145
284.86
332.995
388.067
450.699
521.728
602.429
694.054
798.286
914.473
1041.59
1182.82
1340.85
1512.85
1697.67
1898.31
2116.05
2351.47
2602.92
2866.73
3144.03
3436.28
3744.61
4068.92
4405.23
4751.6
5104.86
5467.26
5842.96
6224.09
6604.71
6993.58
7396.4
7816.69
8260.8
8740.04
9258.95
9820.3
10427.7
11063.8
11628.3
12113.7
12548
12924.4
13191.2
13652.7
14100.3
14477.5
14808.9
15109.9
15382.1
15629.9
15853.6
16055.2
16234.9
16393.9
16532.5
16651.8
16752.8
16836.4
16903.8
16956
16993.9
17018.4
17030.3
17030.3
17019.3
16998.1
16967.4
16928.1
16881
16827
16766.8
16701.2
16630.8
16556.3
16478.4
16397.5
16314.1
16228.9
16142.4
16055
15967.2
15879.6
15792.4
15706
15620.9
15537.2
15455.3
15375.4
15297.7
15222.5
15149.9
15080.2
15013.5
14949.8
14889.3
14831.8
14777.5
14726.2
14677.9
14632.6
14590.5
14551.6
14515.8
14483.4
14454.3
14428.6
14406.3
14387.5
14372.2
14360.3
14351.9
14346.7
14344.9
14346.2
14350.7
14358.3
14368.9
14382.4
14399
14418.5
14441
14466.3
14494.6
14525.6
14559.4
14595.8
14634.6
14675.8
14719
14764
14810.3
14857.5
14904.8
14951.4
14995.9
15036.9
15075.6
15108.2
15131.7
15130.5
15113.2
14983.4
14896
14108.7
13082.1
148974
53867.8
36754.9
35946.9
35772.3
35396.1
35086.9
34884
34752
34659.4
34587.1
34524.9
34467.4
34412.1
34357.8
34304.3
34251.6
34199.8
34149.3
34100.1
34052.6
34006.8
33962.8
33920.7
33880.6
33842.3
33806
33771.5
33738.7
33707.8
33678.5
33650.8
33624.6
33599.8
33576.5
33554.4
33533.6
33514
33495.4
33477.9
33461.4
33445.7
33431
33417
33403.8
33391.3
33379.5
33368.3
33357.7
33347.7
33338.2
33329.1
33320.5
33312.4
33304.6
33297.2
33290.2
33283.5
33277
33270.9
33265
33259.4
33254
33248.9
33243.9
33239.1
33234.5
33230
33225.7
33221.6
33217.5
33213.6
33209.8
33206.1
33202.5
33199
33195.5
33192.1
33188.8
33185.5
33182.3
33179.2
33176
33173
33169.9
33166.9
33163.9
33161
33158
33155.1
33152.2
33149.3
33146.4
33143.6
33140.7
33137.8
33134.9
33132
33129.2
33126.2
33123.3
33120.4
33117.4
33114.5
33111.5
33108.5
33105.4
33102.4
33099.3
33096.1
33093
33089.8
33086.5
33083.3
33080
33076.6
33073.2
33069.8
33066.3
33062.7
33059.1
33055.4
33051.7
33048
33044.1
33040.2
33036.3
33032.3
33028.2
33024
33019.8
33015.4
33011.1
33006.6
33002
32997.4
32992.7
32987.9
32983
32978
32972.9
32967.7
32962.4
32957
32951.5
32945.9
32940.2
32934.3
32928.4
32922.3
32916.1
32909.8
32903.3
32896.8
32890
32883.2
32876.2
32869.1
32861.8
32854.3
32846.7
32839
32831.1
32823
32814.7
32806.3
32797.7
32788.9
32779.9
32770.7
32761.4
32751.8
32742
32732
32721.8
32711.3
32700.7
32689.8
32678.6
32667.2
32655.5
32643.6
32631.4
32618.9
32606.2
32593.1
32579.8
32566.1
32552.1
32537.8
32523.1
32508.1
32492.8
32477
32460.9
32444.4
32427.5
32410.2
32392.5
32374.4
32355.7
32336.7
32317.1
32297.1
32276.6
32255.5
32233.9
32211.8
32189.1
32165.8
32141.9
32117.4
32092.3
32066.5
32040.1
32012.9
31985.1
31956.5
31927.1
31897
31866.1
31834.3
31801.7
31768.2
31733.9
31698.5
31662.3
31625
31586.8
31547.5
31507.1
31465.6
31423.1
31379.2
31334.4
31288
31240
31195.4
31147.8
31110.8
31087.5
31056.7
31021.4
30984.5
30945.8
30905.4
30863.2
30819.2
30773.2
30725.2
30675
30622.7
30568.1
30511.3
30452.9
30393.2
30331.9
30268.9
30203.9
30136.6
30067.1
29995.2
29920.7
29843.5
29763.4
29680.1
29593.5
29503.5
29409.7
29312.1
29210.3
29104.3
28993.7
28878.5
28758.3
28633.1
28502.6
28366.7
28225.1
28077.6
27924.2
27764.6
27598.6
27426.1
27246.9
27060.9
26867.2
26666.3
26455.9
26231.3
25997.5
25755.8
25506.3
25248.4
24981.9
24706.6
24422.3
24128.8
23825.7
23512.7
23189.7
22856.4
22512.3
22157.3
21791
21413
21020.1
20614.4
20196
19764.5
19319.4
18860.3
18386.9
17898.8
17395.6
16876.9
16342.4
15791.7
15224.6
14640.6
14039.5
13421.1
12785.2
12131.9
11461.1
10773.1
10068.3
9347.69
8612.32
7863.99
7105.22
6339.68
5572.27
4810.48
4062.73
3344.45
2664.28
2059.65
1462.31
1303.15
1701.96
1891.64
2161.29
2565.17
3086.88
3733.59
4537.11
5527.1
6730.28
8209.54
10039.2
12258.8
14917.7
18131.4
21903.9
26218.2
30757.3
35869
41379.2
47067.8
53805.3
60958.5
66753.1
72389.7
78248.6
83745.7
88823.3
94013.3
98281
101695
106115
111991
118312
123788
127772
130972
134174
137313
140039
142255
144105
145731
147107
148127
148893
149554
150179
150767
151319
151820
152269
152678
153073
153460
153818
154133
154435
154766
155154
155674
156322
156945
157419
157848
158372
158954
159431
159757
160094
160557
161016
161282
161416
161629
161958
162202
162224
162215
162409
162673
162648
162314
162089
162194
162309
162081
161572
161005
160467
159937
159372
158758
158099
157352
156430
155352
154287
153336
152273
150822
149123
147494
145895
143985
141570
138727
135519
131929
127866
123208
117895
111634
103437
92301.2
75629.1
45491.5
15694.3
2550.58
342.036
190.685
137.624
116.486
107.021
105.413
105.152
106.627
116.025
129.605
144.417
162.479
185.927
218.281
256.62
301.016
352.941
414.163
485.446
567.599
661.417
767.85
888.184
1024.33
1177.98
1351.11
1542.24
1749.76
1977.65
2228.55
2497.68
2783.13
3088.2
3413.41
3757.76
4117.91
4488.99
4871.87
5267.54
5675.74
6094.75
6519.17
6946.74
7374.92
7804.32
8237.05
8667.25
9091.74
9519.33
9956.96
10410.2
10886.2
11394.8
11941.6
12523.2
13122.5
13717.1
14242.2
14687.4
15065.4
15401.8
15713
16123
16517.4
16848.2
17142
17406.7
17646.5
17863.7
18059.9
18236.4
18393.9
18533.2
18655.1
18760.3
18849.9
18924.7
18985.7
19033.8
19069.7
19094.2
19107.8
19111.2
19105.1
19090
19066.6
19035.6
18997.6
18953.4
18903.4
18848.5
18789.1
18725.7
18659
18589.2
18517
18442.8
18367.1
18290.4
18213
18135.5
18058.2
17981.5
17905.8
17831.3
17758.4
17687.3
17618.3
17551.7
17487.6
17426.4
17368.2
17313.1
17261.3
17212.7
17167.5
17125.5
17086.9
17051.8
17020
16991.9
16967.4
16946.7
16929.7
16916.7
16907.6
16902.4
16901.3
16904.1
16910.9
16921.5
16935.9
16954
16975.7
17001
17029.8
17062.1
17097.8
17136.8
17179.2
17224.9
17273.7
17325.7
17380.8
17438.7
17499.4
17562.7
17628.3
17696
17765.3
17835.9
17907.1
17978.1
18047.9
18114.6
18177.8
18231.9
18276.8
18295.5
18307.9
18213.7
18203.8
17567.6
17242.7
95367.9
45005.3
29556
27307.8
27121.9
27050.4
26979.5
26938.7
26919.7
26907.7
26894.3
26876.4
26853.7
26827
26797.5
26766.2
26734.1
26701.6
26669.5
26637.9
26607.3
26577.7
26549.2
26522
26496
26471.2
26447.7
26425.4
26404.2
26384.1
26365.1
26347.2
26330.2
26314.1
26298.9
26284.6
26271
26258.2
26246.1
26234.6
26223.7
26213.5
26203.8
26194.6
26185.9
26177.6
26169.8
26162.4
26155.4
26148.7
26142.4
26136.3
26130.6
26125.2
26120
26115
26110.3
26105.8
26101.4
26097.3
26093.4
26089.6
26085.9
26082.4
26079.1
26075.8
26072.7
26069.7
26066.8
26063.9
26061.2
26058.5
26055.9
26053.4
26051
26048.5
26046.2
26043.9
26041.6
26039.4
26037.2
26035
26032.9
26030.8
26028.7
26026.6
26024.6
26022.5
26020.5
26018.5
26016.5
26014.5
26012.5
26010.6
26008.6
26006.6
26004.6
26002.7
26000.7
25998.7
25996.7
25994.7
25992.6
25990.6
25988.5
25986.5
25984.4
25982.3
25980.1
25978
25975.8
25973.6
25971.4
25969.1
25966.9
25964.6
25962.2
25959.9
25957.5
25955
25952.5
25950
25947.5
25944.9
25942.3
25939.6
25936.9
25934.1
25931.3
25928.5
25925.6
25922.6
25919.6
25916.5
25913.4
25910.2
25907
25903.7
25900.4
25896.9
25893.5
25889.9
25886.3
25882.6
25878.8
25875
25871.1
25867.1
25863
25858.9
25854.6
25850.3
25845.9
25841.4
25836.9
25832.2
25827.4
25822.6
25817.6
25812.5
25807.4
25802.1
25796.7
25791.2
25785.6
25779.9
25774
25768
25761.9
25755.7
25749.3
25742.8
25736.2
25729.4
25722.5
25715.4
25708.2
25700.8
25693.2
25685.5
25677.6
25669.6
25661.3
25652.9
25644.3
25635.4
25626.4
25617.2
25607.7
25598.1
25588.2
25578.1
25567.7
25557.1
25546.3
25535.1
25523.8
25512.1
25500.2
25488
25475.4
25462.6
25449.5
25436
25422.2
25408
25393.5
25378.6
25363.4
25347.8
25331.7
25315.3
25298.4
25281.1
25263.3
25245.1
25226.4
25207.3
25187.6
25167.4
25146.6
25125.3
25103.5
25081
25058
25034.3
25010
24985
24959.4
24933.1
24906
24878.2
24849.7
24820.2
24790.2
24759
24727
24695.9
24671
24666.7
24676.9
24683.3
24685.2
24685.4
24684.5
24682.5
24679.5
24675.3
24669.7
24662.8
24654.5
24644.7
24633.3
24620.7
24607.6
24594.5
24581.1
24567.2
24552.7
24537.5
24521.5
24504.5
24486.3
24466.7
24445.5
24422.5
24397.6
24370.4
24340.8
24308.6
24273.5
24235.2
24193.6
24148.4
24099.3
24046.2
23988.7
23926.8
23860.1
23788.4
23711.5
23629.2
23541.2
23447.5
23347.8
23241.8
23129.3
23010.4
22884.4
22749.7
22607.5
22458.9
22304.1
22142.6
21974.3
21798.8
21616
21425.5
21227.2
21020.8
20806
20582.4
20349.8
20107.8
19856
19594.2
19319.7
19034.5
18738.2
18430.2
18109.8
17776.6
17430.1
17069.7
16694.9
16305
15899.5
15477.7
15038.9
14582.3
14107.2
13612.9
13098.3
12562.8
12005.3
11424.9
10820.9
10192.3
9538.3
8858.47
8152.54
7421.03
6665.22
5888.88
5096.68
4302.06
3512.77
2775.08
2017.21
1758.52
2098.43
2307.9
2612.45
3039.81
3586.98
4255.31
5066.93
6040.76
7194.5
8568.09
10198.8
12099
14300.7
16860.3
19727.5
22880.5
26306.6
30057
33795.7
37923.2
43667.3
49783.3
54684.2
59189.8
63857.8
68218.5
72467.8
77026.4
80366.6
82354.3
84759.4
88724.4
93835.9
98746.5
102360
105057
107654
110290
112676
114640
116271
117721
118988
119939
120623
121160
121640
122090
122517
122907
123255
123564
123860
124159
124440
124675
124874
125052
125238
125539
126012
126524
126906
127203
127579
128057
128477
128734
128958
129317
129739
130009
130106
130241
130526
130793
130832
130770
130907
131224
131338
131074
130794
130856
131082
131090
130812
130414
130007
129609
129195
128770
128357
127911
127296
126481
125678
125087
124502
123546
122287
121126
120170
119106
117655
115832
113724
111353
108641
105570
102309
98776.8
93864.3
86478.2
75855.4
54368
22115.1
3596.52
490.994
274.682
199.323
168.924
155.401
153.032
152.679
155.057
168.729
188.363
209.898
236.288
270.515
317.488
372.915
436.902
511.364
598.43
698.724
812.797
941.075
1084.12
1242.79
1418.56
1612.22
1824.48
2052.84
2295.1
2553.96
2830.53
3119.93
3420.21
3733.68
4059.72
4396.28
4740.62
5089.47
5443.55
5803.33
6167.69
6534.84
6901.26
7266.26
7629.04
7988.64
8346.02
8700.27
9051.67
9406.53
9771.23
10151.5
10553.2
10983.1
11445.2
11930.8
12416
12885.5
13305.8
13665.6
13971.5
14257.2
14562.1
14903.9
15232.2
15513.8
15770.4
16004.5
16220.3
16418.5
16600.7
16767.3
16919.1
17056.4
17179.7
17289.6
17386.5
17471.3
17544.4
17606.5
17658.2
17699.8
17731.8
17754.6
17768.7
17774.5
17772.4
17762.9
17746.7
17724.1
17695.6
17661.8
17623.2
17580
17532.9
17482
17427.9
17371
17311.7
17250.3
17187.4
17123.2
17058.2
16992.6
16926.9
16861.3
16796.1
16731.5
16667.9
16605.5
16544.5
16485.2
16427.7
16372.3
16319
16268
16219.2
16172.8
16128.7
16087.2
16048.3
16012.1
15978.8
15948.4
15921.1
15897
15876.1
15858.5
15844.3
15833.4
15826
15821.9
15821.2
15823.8
15829.6
15838.7
15850.9
15866.4
15885.1
15906.9
15931.9
15960
15991.2
16025.4
16062.6
16102.7
16145.6
16191.2
16239.2
16289.6
16341.9
16396
16451.4
16507.5
16563.8
16618.5
16670.5
16714.8
16752.7
16770.4
16790.3
16732.3
16769.6
16371.2
16673.9
60247.6
35876
23771.9
21014
20522.9
20449.5
20445.6
20466.6
20498.5
20529.4
20552.4
20565.4
20569
20565
20555.2
20541.4
20524.8
20506.6
20487.6
20468.4
20449.2
20430.5
20412.4
20394.9
20378.2
20362.3
20347.1
20332.8
20319.2
20306.3
20294.1
20282.6
20271.8
20261.5
20251.8
20242.7
20234
20225.8
20218.1
20210.8
20203.9
20197.4
20191.2
20185.3
20179.8
20174.5
20169.5
20164.8
20160.2
20156
20151.9
20148
20144.3
20140.8
20137.4
20134.2
20131.2
20128.2
20125.4
20122.8
20120.2
20117.7
20115.3
20113
20110.8
20108.7
20106.6
20104.6
20102.7
20100.8
20099
20097.2
20095.5
20093.8
20092.1
20090.5
20088.9
20087.3
20085.8
20084.3
20082.8
20081.3
20079.9
20078.4
20077
20075.6
20074.1
20072.7
20071.3
20070
20068.6
20067.2
20065.8
20064.4
20063
20061.7
20060.3
20058.9
20057.5
20056.1
20054.7
20053.2
20051.8
20050.4
20048.9
20047.5
20046
20044.5
20043
20041.5
20039.9
20038.4
20036.8
20035.2
20033.6
20032
20030.3
20028.6
20026.9
20025.2
20023.5
20021.7
20019.9
20018
20016.2
20014.3
20012.3
20010.4
20008.4
20006.4
20004.3
20002.2
20000.1
19997.9
19995.7
19993.4
19991.1
19988.8
19986.4
19984
19981.5
19979
19976.5
19973.8
19971.2
19968.5
19965.7
19962.9
19960
19957.1
19954.1
19951
19947.9
19944.8
19941.5
19938.2
19934.9
19931.5
19928
19924.4
19920.8
19917.1
19913.3
19909.4
19905.5
19901.5
19897.4
19893.2
19888.9
19884.6
19880.1
19875.6
19870.9
19866.2
19861.4
19856.4
19851.4
19846.2
19841
19835.6
19830.1
19824.5
19818.8
19812.9
19806.9
19800.8
19794.6
19788.2
19781.6
19774.9
19768.1
19761.1
19753.9
19746.6
19739.1
19731.5
19723.6
19715.6
19707.3
19698.9
19690.3
19681.5
19672.4
19663.2
19653.7
19644
19634
19623.8
19613.3
19602.6
19591.6
19580.3
19568.8
19556.9
19544.8
19532.3
19519.5
19506.4
19492.9
19479.1
19465
19450.4
19435.5
19420.2
19404.4
19388.3
19371.7
19354.7
19337.2
19319.3
19300.8
19281.9
19262.4
19242.4
19221.9
19200.7
19178.9
19157
19144.8
19154.6
19177.8
19200.3
19219.6
19237.1
19253.7
19269.7
19284.9
19299.5
19313.2
19326.1
19338.1
19349.1
19359.1
19368.5
19377.8
19387.6
19397.6
19407.7
19417.9
19427.9
19437.7
19447.3
19456.3
19464.8
19472.5
19479.2
19484.7
19489
19491.7
19492.8
19491.9
19488.9
19483.5
19475.6
19465
19451.4
19434.6
19414.5
19390.8
19363.1
19331.6
19295.8
19255.7
19210.9
19161.5
19107
19047.4
18982.6
18912.3
18835.1
18751.5
18662.9
18569.5
18471
18367.2
18257.9
18143
18022.1
17895.1
17761.7
17621.7
17474.8
17320.7
17159.2
16989.9
16812.5
16625.8
16430.4
16225.9
16012
15787.9
15553.3
15307.6
15050.3
14780.9
14498.8
14203.3
13893.7
13569.4
13229.4
12873
12499.1
12106.9
11695.1
11262.6
10808
10329.9
9826.81
9296.97
8738.63
8149.93
7529.28
6875.12
6187.57
5466.71
4720.55
3951.27
3201.33
2400.89
2060.44
2245.09
2413.6
2694.72
3072.19
3552.85
4134.43
4828.29
5643.08
6588.32
7685.8
8948.97
10376.2
11989.4
13817.7
15818.4
17981.9
20328.7
22842.4
25207.4
27909.9
32149.1
36966.4
41095
44830.5
48633.5
52226.4
55870.4
59889.2
62881.3
64450.6
65871.8
68455.7
72338.6
76524.3
79913.3
82484.3
84819.3
87165.4
89365.6
91247.7
92833.5
94244.3
95506.4
96494
97231.9
97788
98252
98668.2
99056.2
99408.7
99722.4
99996.4
100251
100506
100749
100952
101111
101226
101315
101481
101806
102208
102528
102761
103037
103414
103779
104011
104184
104456
104816
105084
105193
105293
105520
105774
105853
105801
105884
106167
106352
106204
105953
105954
106168
106290
106186
105937
105646
105347
105039
104735
104464
104195
103797
103209
102605
102197
101862
101256
100362
99514.4
98890.6
98286.1
97436.1
96298.2
94932.3
93375.7
91574.6
89534
87497
85565.9
82805.4
78076.8
71477.7
57739.9
27375.1
4586.05
622.212
355.479
261.639
223.059
205.972
202.947
202.663
206.311
224.394
250.068
278.379
313.154
357.951
418.544
489.089
569.448
661.362
766.499
884.623
1015.36
1158.27
1313.17
1480.29
1660.41
1853.41
2059.2
2275.82
2501.64
2738.12
2985.78
3241.73
3504.88
3776.57
4055.88
4341.02
4630.73
4923.51
5219.78
5519.58
5821.63
6124.63
6426.8
6728.38
7029.15
7327.56
7624.39
7921.03
8218.95
8522.63
8837.42
9168.33
9519.92
9896.97
10301.4
10722.8
11138.3
11536.7
11897.6
12211.2
12483.3
12746.1
13040.1
13348
13642.1
13900.1
14139.2
14360
14565.9
14757.1
14935
15099.7
15251.7
15391.2
15518.7
15634.3
15738.5
15831.8
15914.6
15987.5
16050.6
16104.5
16149.4
16185.5
16213.3
16233.1
16245.2
16250
16248
16239.5
16225.1
16205
16179.8
16149.6
16115
16076.3
16033.7
15987.7
15938.7
15886.9
15832.9
15776.9
15719.2
15660.2
15600.2
15539.5
15478.3
15416.9
15355.5
15294.5
15233.9
15174.1
15115.2
15057.4
15000.9
14945.7
14891.8
14839.5
14788.6
14739.5
14692.1
14646.5
14603
14561.7
14522.5
14485.7
14451.4
14419.6
14390.3
14363.8
14339.8
14318.5
14299.9
14283.9
14270.6
14259.9
14251.8
14246.3
14243.5
14243.3
14245.8
14250.9
14258.7
14269.1
14282.1
14297.7
14315.8
14336.2
14359
14383.9
14410.9
14439.5
14469.8
14501.1
14533.3
14564.7
14594.6
14618.5
14638.5
14643.5
14654.3
14608.1
14651.6
14382.3
14922.7
40335.6
28208.5
19676.2
16887.9
16102.1
15900.2
15860.8
15876
15912.2
15952.7
15988.4
16015.4
16033.2
16042.5
16045.2
16042.8
16036.6
16028
16017.9
16006.8
15995.3
15983.7
15972.2
15961.1
15950.5
15940.3
15930.6
15921.4
15912.8
15904.6
15896.9
15889.7
15882.9
15876.5
15870.5
15864.8
15859.5
15854.5
15849.7
15845.3
15841.1
15837.1
15833.4