/*--------------------------------*- C++ -*----------------------------------*\
  =========                 |
  \\      /  F ield         | OpenFOAM: The Open Source CFD Toolbox
   \\    /   O peration     | Website:  https://openfoam.org
    \\  /    A nd           | Version:  7
     \\/     M anipulation  |
\*---------------------------------------------------------------------------*/
FoamFile
{
    version     2.0;
    format      ascii;
    class       volScalarField;
    location    "2000";
    object      k;
}
// * * * * * * * * * * * * * * * * * * * * * * * * * * * * * * * * * * * * * //

dimensions      [0 2 -2 0 0 0 0];

internalField   nonuniform List<scalar> 
51626
(
0.078389
0.0182153
0.0144563
0.0141222
0.0135647
0.0131247
0.0128356
0.0126551
0.0125447
0.0124761
0.0124304
0.0123962
0.0123671
0.0123399
0.0123131
0.012286
0.0122586
0.0122312
0.0122039
0.012177
0.0121507
0.0121252
0.0121006
0.012077
0.0120544
0.0120329
0.0120125
0.0119932
0.011975
0.0119578
0.0119415
0.0119262
0.0119118
0.0118983
0.0118855
0.0118736
0.0118623
0.0118517
0.0118417
0.0118324
0.0118235
0.0118152
0.0118074
0.0118001
0.0117931
0.0117866
0.0117804
0.0117746
0.0117691
0.0117639
0.0117589
0.0117543
0.0117499
0.0117457
0.0117417
0.0117379
0.0117343
0.0117308
0.0117276
0.0117244
0.0117214
0.0117186
0.0117158
0.0117132
0.0117107
0.0117082
0.0117059
0.0117036
0.0117014
0.0116993
0.0116972
0.0116952
0.0116933
0.0116914
0.0116896
0.0116877
0.011686
0.0116842
0.0116825
0.0116808
0.0116792
0.0116775
0.0116759
0.0116743
0.0116728
0.0116712
0.0116697
0.0116681
0.0116666
0.0116651
0.0116635
0.011662
0.0116605
0.011659
0.0116575
0.011656
0.0116545
0.0116529
0.0116514
0.0116499
0.0116483
0.0116468
0.0116452
0.0116436
0.011642
0.0116404
0.0116388
0.0116372
0.0116355
0.0116338
0.0116322
0.0116305
0.0116287
0.011627
0.0116252
0.0116234
0.0116216
0.0116197
0.0116179
0.011616
0.011614
0.0116121
0.0116101
0.0116081
0.011606
0.0116039
0.0116018
0.0115996
0.0115974
0.0115952
0.0115929
0.0115906
0.0115883
0.0115859
0.0115834
0.0115809
0.0115784
0.0115758
0.0115732
0.0115705
0.0115678
0.011565
0.0115621
0.0115592
0.0115563
0.0115533
0.0115502
0.0115471
0.0115439
0.0115406
0.0115373
0.0115339
0.0115304
0.0115269
0.0115233
0.0115196
0.0115159
0.011512
0.0115081
0.0115041
0.0115001
0.0114959
0.0114917
0.0114873
0.0114829
0.0114784
0.0114738
0.0114691
0.0114643
0.0114594
0.0114544
0.0114492
0.011444
0.0114386
0.0114332
0.0114276
0.0114219
0.0114161
0.0114101
0.011404
0.0113978
0.0113914
0.0113849
0.0113783
0.0113715
0.0113645
0.0113574
0.0113501
0.0113427
0.011335
0.0113272
0.0113193
0.0113111
0.0113027
0.0112942
0.0112854
0.0112764
0.0112672
0.0112578
0.0112482
0.0112383
0.0112282
0.0112179
0.0112072
0.0111964
0.0111852
0.0111738
0.0111621
0.0111501
0.0111378
0.0111252
0.0111123
0.011099
0.0110855
0.0110715
0.0110572
0.0110426
0.0110275
0.0110121
0.0109963
0.0109801
0.0109634
0.0109463
0.0109288
0.0109108
0.0108923
0.0108734
0.010854
0.010834
0.0108135
0.0107925
0.010771
0.0107488
0.0107261
0.0107028
0.0106791
0.0106536
0.0106334
0.0105997
0.0105526
0.0105112
0.0104668
0.0104209
0.010374
0.0103262
0.0102777
0.0102286
0.0101788
0.0101285
0.0100774
0.0100257
0.00997319
0.00992009
0.0098653
0.00980783
0.00974745
0.00968408
0.00961776
0.00954858
0.00947647
0.00940163
0.00932425
0.00924452
0.00916262
0.00907872
0.00899299
0.00890561
0.00881669
0.00872643
0.00863502
0.00854266
0.00844951
0.00835574
0.00826145
0.00816683
0.00807209
0.00797723
0.00788227
0.00778764
0.00769313
0.00759883
0.00750494
0.00741135
0.0073181
0.00722521
0.00713279
0.00704026
0.00694816
0.006855
0.00675863
0.0066603
0.00656047
0.00645901
0.00635579
0.00625078
0.00614395
0.0060353
0.00592483
0.00581252
0.00569836
0.00558234
0.00546446
0.0053447
0.00522307
0.00509957
0.00497415
0.00484541
0.00471422
0.00458111
0.00444617
0.00430936
0.0041707
0.00403022
0.00388796
0.00374396
0.00359829
0.00345099
0.00330216
0.00315187
0.00300023
0.00284734
0.00269334
0.00253839
0.00238267
0.00222638
0.00206977
0.00191312
0.00175678
0.00160115
0.0014467
0.00129401
0.00114382
0.000996966
0.000854651
0.00071804
0.000589366
0.000469304
0.000363763
0.000258091
0.000236722
0.000324904
0.000350314
0.000388666
0.000447811
0.000519422
0.000603254
0.000703399
0.000823734
0.000967736
0.00114598
0.00137285
0.00165832
0.00201458
0.00247341
0.00305563
0.0037717
0.00457096
0.00557822
0.00685218
0.00807657
0.00928319
0.0109811
0.0125556
0.0141386
0.0157996
0.0175048
0.0188724
0.0202662
0.0221352
0.0239895
0.0259569
0.0278191
0.0294651
0.031185
0.0328814
0.0343621
0.035649
0.036826
0.0379328
0.0389139
0.0397094
0.0403536
0.0409078
0.0413861
0.0417949
0.0421469
0.0424589
0.0427291
0.0429639
0.0431694
0.0433548
0.0435193
0.0436577
0.0437753
0.0438886
0.0440068
0.0441431
0.0443252
0.0445284
0.0447009
0.0448366
0.0449964
0.0451856
0.0453627
0.0454912
0.0456005
0.0457403
0.0459016
0.046022
0.0460788
0.0461401
0.046239
0.046337
0.0463736
0.046362
0.0463931
0.0464786
0.0465196
0.0464391
0.0463346
0.0463219
0.0463683
0.046331
0.0461731
0.0459984
0.0458251
0.0456348
0.0454301
0.0452204
0.0449945
0.044739
0.0444291
0.0440554
0.0436729
0.0433333
0.0429775
0.0424844
0.0418737
0.0413023
0.0407946
0.04018
0.0393625
0.0384037
0.0373841
0.0362806
0.0350474
0.0336761
0.0321573
0.0304954
0.0285211
0.0260602
0.0232365
0.0202793
0.0168192
0.0115253
0.00520407
0.00176744
0.000273437
3.25508e-05
1.72978e-05
1.18567e-05
9.73874e-06
8.84744e-06
8.7193e-06
8.83762e-06
9.1919e-06
1.01707e-05
1.1548e-05
1.32045e-05
1.53762e-05
1.82207e-05
2.20787e-05
2.67844e-05
3.24895e-05
3.94292e-05
4.78674e-05
5.80003e-05
7.00369e-05
8.4195e-05
0.00010071
0.00011984
0.000141907
0.000167215
0.000196161
0.000228713
0.000264692
0.000304764
0.000349602
0.000398621
0.000451529
0.000509023
0.000571411
0.000638887
0.00071117
0.000787328
0.000867685
0.000952642
0.00104258
0.00113769
0.00123708
0.00134047
0.0014469
0.00155713
0.00167314
0.00179287
0.00191404
0.00203923
0.0021701
0.00230721
0.00245181
0.00260741
0.00277487
0.00295417
0.00315031
0.00336552
0.00356054
0.00372961
0.00389065
0.00403868
0.0041223
0.00429096
0.00446091
0.00460802
0.00473941
0.004862
0.00497562
0.00508204
0.00518097
0.00527303
0.00535808
0.00543633
0.00550776
0.00557255
0.00563085
0.00568288
0.00572889
0.00576911
0.00580376
0.005833
0.00585702
0.00587599
0.00589008
0.0058995
0.00590447
0.00590521
0.00590199
0.00589504
0.00588461
0.00587096
0.0058543
0.00583486
0.00581286
0.00578849
0.00576195
0.00573346
0.00570323
0.00567148
0.0056384
0.00560422
0.00556908
0.00553321
0.00549672
0.0054598
0.00542257
0.00538518
0.00534777
0.00531048
0.00527342
0.00523671
0.00520045
0.00516473
0.00512958
0.00509506
0.00506118
0.005028
0.00499552
0.00496383
0.00493294
0.00490295
0.00487389
0.00484584
0.00481882
0.00479292
0.00476815
0.00474456
0.00472215
0.00470097
0.00468098
0.0046622
0.0046446
0.00462818
0.00461292
0.00459882
0.00458587
0.00457408
0.00456343
0.00455393
0.00454558
0.00453838
0.0045323
0.00452734
0.00452346
0.00452063
0.00451881
0.00451793
0.00451791
0.00451865
0.00452002
0.00452187
0.00452393
0.00452596
0.00452748
0.00452852
0.00453076
0.00453441
0.00453826
0.00453755
0.00453327
0.00449392
0.00446609
0.00419076
0.00381079
1.71832
0.542421
0.432819
0.423677
0.4075
0.394714
0.386317
0.381075
0.377873
0.375885
0.374562
0.37357
0.372725
0.371932
0.371148
0.370356
0.369557
0.368753
0.367954
0.367166
0.366396
0.365648
0.364927
0.364235
0.363574
0.362945
0.362347
0.361781
0.361246
0.360742
0.360265
0.359817
0.359395
0.358998
0.358624
0.358273
0.357943
0.357632
0.35734
0.357066
0.356807
0.356564
0.356335
0.356119
0.355916
0.355724
0.355543
0.355372
0.355211
0.355058
0.354914
0.354777
0.354647
0.354524
0.354407
0.354296
0.354191
0.35409
0.353994
0.353902
0.353814
0.35373
0.35365
0.353573
0.353499
0.353427
0.353358
0.353292
0.353228
0.353165
0.353105
0.353046
0.352989
0.352934
0.352879
0.352826
0.352774
0.352723
0.352673
0.352624
0.352575
0.352527
0.35248
0.352433
0.352387
0.352341
0.352296
0.352251
0.352206
0.352161
0.352117
0.352072
0.352028
0.351984
0.351939
0.351895
0.35185
0.351806
0.351761
0.351716
0.35167
0.351625
0.351579
0.351532
0.351486
0.351439
0.351391
0.351343
0.351295
0.351246
0.351196
0.351146
0.351095
0.351044
0.350992
0.350939
0.350886
0.350832
0.350777
0.350721
0.350664
0.350607
0.350548
0.350489
0.350429
0.350368
0.350305
0.350242
0.350177
0.350112
0.350045
0.349977
0.349908
0.349838
0.349766
0.349693
0.349619
0.349543
0.349466
0.349387
0.349307
0.349225
0.349142
0.349057
0.34897
0.348881
0.348791
0.348699
0.348605
0.34851
0.348412
0.348313
0.348211
0.348107
0.348002
0.347894
0.347784
0.347672
0.347557
0.34744
0.347321
0.347199
0.347074
0.346947
0.346817
0.346685
0.34655
0.346411
0.34627
0.346126
0.345979
0.345829
0.345675
0.345518
0.345358
0.345194
0.345027
0.344856
0.344681
0.344503
0.34432
0.344133
0.343942
0.343747
0.343547
0.343343
0.343134
0.34292
0.342702
0.342478
0.342249
0.342015
0.341775
0.34153
0.341279
0.341021
0.340758
0.340488
0.340212
0.339929
0.33964
0.339343
0.339039
0.338727
0.338408
0.338081
0.337746
0.337402
0.33705
0.336689
0.336319
0.335939
0.33555
0.335151
0.334742
0.334322
0.333891
0.33345
0.332997
0.332532
0.332055
0.331566
0.331064
0.330549
0.33002
0.329477
0.328921
0.328349
0.327763
0.327161
0.326543
0.325909
0.325258
0.324591
0.323904
0.323207
0.322456
0.321864
0.320836
0.319359
0.31802
0.31659
0.315115
0.313612
0.312085
0.310536
0.308971
0.307388
0.305786
0.304165
0.302525
0.300863
0.299183
0.297455
0.295649
0.29376
0.291784
0.289723
0.287579
0.28535
0.283043
0.280662
0.278213
0.275702
0.273132
0.27051
0.267841
0.265126
0.262373
0.259587
0.256774
0.253938
0.251084
0.248216
0.245337
0.242456
0.239572
0.236685
0.233808
0.230935
0.228068
0.225214
0.222369
0.219535
0.216712
0.213903
0.211092
0.208294
0.205464
0.20254
0.199559
0.196535
0.193464
0.190341
0.187167
0.18394
0.180661
0.177328
0.173942
0.170503
0.16701
0.163462
0.15986
0.156204
0.152494
0.148727
0.144863
0.140928
0.136936
0.132891
0.128792
0.124639
0.120432
0.116173
0.111864
0.107505
0.103099
0.0986477
0.0941537
0.0896198
0.0850495
0.0804465
0.0758155
0.0711616
0.0664912
0.0618114
0.0571308
0.0524594
0.0478092
0.0431945
0.0386326
0.0341451
0.0297576
0.025506
0.0214251
0.0175819
0.0139966
0.0108459
0.00769254
0.00705255
0.00967873
0.0104347
0.0115776
0.0133383
0.0154686
0.0179605
0.0209346
0.024504
0.0287699
0.0340435
0.0407444
0.049158
0.0596349
0.0730976
0.0901215
0.110971
0.13415
0.163254
0.199754
0.234621
0.269446
0.318192
0.362686
0.407372
0.454238
0.501997
0.540235
0.579605
0.631359
0.681415
0.734485
0.785229
0.830709
0.878033
0.923952
0.963661
0.998346
1.03024
1.06017
1.08657
1.10798
1.12544
1.14052
1.15348
1.16449
1.17398
1.1824
1.18972
1.1961
1.20171
1.20676
1.21125
1.21504
1.21831
1.22146
1.22469
1.22836
1.23319
1.23852
1.24309
1.24683
1.25122
1.25627
1.26093
1.2644
1.26748
1.27131
1.27557
1.27874
1.28039
1.28224
1.28494
1.2875
1.28849
1.28839
1.28941
1.29165
1.29264
1.29066
1.28825
1.28809
1.28917
1.28804
1.28408
1.27983
1.27546
1.27051
1.26516
1.25968
1.25379
1.24711
1.23902
1.2293
1.21936
1.21045
1.20098
1.18794
1.17199
1.1571
1.14366
1.12723
1.10556
1.0803
1.05336
1.02401
0.991045
0.954292
0.913517
0.868648
0.81503
0.7479
0.670356
0.58814
0.490489
0.33885
0.154482
0.0527063
0.00820132
0.0009785
0.000516329
0.000353674
0.000290374
0.000263726
0.00025986
0.000263364
0.000273881
0.000303007
0.000344031
0.000393362
0.000458033
0.000542729
0.000657628
0.000797787
0.000967706
0.00117439
0.00142571
0.00172749
0.00208596
0.0025076
0.00299939
0.00356903
0.00422606
0.00497947
0.00584109
0.00680992
0.00788055
0.0090727
0.0104063
0.011864
0.0134369
0.0151456
0.0169991
0.019003
0.021149
0.0234092
0.0257931
0.0283124
0.0309779
0.0337958
0.0367389
0.0397991
0.0429482
0.0462078
0.0496366
0.0531743
0.0567532
0.0604495
0.0643116
0.0683564
0.0726195
0.0772043
0.0821354
0.0874102
0.0931715
0.0994893
0.105215
0.110175
0.114896
0.119253
0.121712
0.126649
0.13163
0.135942
0.139795
0.143391
0.146725
0.149848
0.152753
0.155459
0.15796
0.160263
0.162367
0.164279
0.166001
0.167541
0.168906
0.170102
0.171135
0.172011
0.172734
0.17331
0.173743
0.174039
0.174204
0.174246
0.174171
0.173986
0.173698
0.173316
0.172844
0.17229
0.171659
0.170958
0.170192
0.169368
0.168491
0.167568
0.166605
0.165608
0.164582
0.163533
0.162465
0.161383
0.160291
0.159194
0.158094
0.156997
0.155905
0.154823
0.153753
0.152698
0.151659
0.150638
0.149635
0.148651
0.147688
0.146747
0.145829
0.144938
0.144073
0.143237
0.142432
0.141659
0.140919
0.140214
0.139544
0.138909
0.138309
0.137745
0.137215
0.13672
0.136259
0.135833
0.13544
0.135081
0.134756
0.134465
0.134207
0.133984
0.133793
0.133635
0.133509
0.133415
0.133349
0.133312
0.1333
0.13331
0.133339
0.133382
0.133432
0.133481
0.133516
0.133537
0.133593
0.13369
0.133794
0.133764
0.133633
0.132473
0.131682
0.123598
0.112645
4.8373
2.65137
2.24372
2.15616
2.0906
2.04278
2.01135
1.99186
1.9801
1.97288
1.96808
1.96445
1.9613
1.95828
1.95524
1.95213
1.94897
1.94577
1.94258
1.93943
1.93634
1.93334
1.93045
1.92767
1.92501
1.92248
1.92008
1.91781
1.91566
1.91363
1.91171
1.90991
1.90821
1.90662
1.90512
1.90371
1.90238
1.90113
1.89996
1.89886
1.89782
1.89684
1.89592
1.89505
1.89424
1.89347
1.89274
1.89205
1.89141
1.89079
1.89021
1.88966
1.88914
1.88865
1.88818
1.88774
1.88731
1.88691
1.88652
1.88615
1.8858
1.88547
1.88514
1.88483
1.88454
1.88425
1.88397
1.88371
1.88345
1.8832
1.88296
1.88272
1.88249
1.88227
1.88205
1.88184
1.88163
1.88142
1.88122
1.88102
1.88083
1.88063
1.88044
1.88026
1.88007
1.87989
1.8797
1.87952
1.87934
1.87916
1.87898
1.8788
1.87862
1.87844
1.87826
1.87808
1.8779
1.87772
1.87754
1.87736
1.87718
1.87699
1.87681
1.87662
1.87643
1.87624
1.87605
1.87586
1.87566
1.87546
1.87526
1.87506
1.87485
1.87465
1.87444
1.87422
1.87401
1.87379
1.87357
1.87334
1.87311
1.87288
1.87265
1.87241
1.87216
1.87192
1.87166
1.87141
1.87115
1.87088
1.87061
1.87034
1.87006
1.86978
1.86949
1.86919
1.86889
1.86859
1.86827
1.86796
1.86763
1.8673
1.86697
1.86662
1.86627
1.86592
1.86555
1.86518
1.8648
1.86442
1.86402
1.86362
1.86321
1.86279
1.86237
1.86193
1.86149
1.86104
1.86057
1.8601
1.85962
1.85913
1.85863
1.85812
1.85759
1.85706
1.85651
1.85596
1.85539
1.85481
1.85422
1.85361
1.85299
1.85236
1.85172
1.85106
1.85038
1.84969
1.84899
1.84827
1.84753
1.84678
1.84601
1.84523
1.84442
1.8436
1.84276
1.8419
1.84102
1.84011
1.83919
1.83825
1.83728
1.83629
1.83528
1.83424
1.83318
1.83209
1.83098
1.82984
1.82867
1.82747
1.82625
1.82499
1.8237
1.82238
1.82103
1.81964
1.81822
1.81676
1.81526
1.81372
1.81215
1.81054
1.80888
1.80718
1.80544
1.80365
1.80181
1.79992
1.79799
1.796
1.79397
1.79187
1.78972
1.78752
1.78525
1.78292
1.78053
1.77808
1.77556
1.77297
1.77031
1.76758
1.76478
1.76191
1.75886
1.75638
1.75192
1.74514
1.73849
1.73143
1.72416
1.71677
1.70927
1.70168
1.694
1.68624
1.67839
1.67045
1.66241
1.65427
1.64605
1.63762
1.62889
1.61984
1.61044
1.6007
1.59063
1.5802
1.56945
1.55838
1.54701
1.53537
1.52345
1.51129
1.4989
1.48627
1.47345
1.46043
1.44725
1.43392
1.42045
1.40686
1.39317
1.3794
1.36556
1.35163
1.33768
1.32368
1.30963
1.29558
1.28149
1.26739
1.25326
1.23913
1.22492
1.2107
1.19627
1.18128
1.16597
1.1504
1.13456
1.11841
1.10196
1.08519
1.06811
1.05071
1.03298
1.01491
0.996505
0.977754
0.958651
0.939191
0.919368
0.89917
0.878362
0.857084
0.835409
0.813337
0.79086
0.767968
0.74466
0.720931
0.696779
0.672205
0.647207
0.621787
0.59595
0.569698
0.54304
0.515987
0.488553
0.460756
0.432621
0.404179
0.37547
0.346546
0.31747
0.288325
0.259214
0.230278
0.201686
0.173686
0.146531
0.120706
0.0963926
0.0748629
0.0532123
0.0486423
0.0663385
0.0715258
0.0792532
0.091061
0.105228
0.121626
0.140953
0.163811
0.190701
0.223374
0.26404
0.313895
0.37447
0.45013
0.542381
0.651139
0.767023
0.905868
1.06936
1.22534
1.39151
1.60303
1.78839
1.97003
2.15689
2.33897
2.49119
2.64685
2.81801
2.96974
3.13126
3.30111
3.46272
3.62478
3.77028
3.89285
4.00341
4.10772
4.20422
4.28828
4.35783
4.41704
4.46888
4.51239
4.54869
4.58009
4.60821
4.63314
4.65541
4.67526
4.69312
4.7091
4.72329
4.73618
4.74832
4.75986
4.7717
4.78537
4.79987
4.81391
4.82789
4.84319
4.85822
4.87178
4.8841
4.89654
4.90959
4.92167
4.93155
4.94
4.94924
4.95833
4.96539
4.97013
4.9743
4.98008
4.98574
4.98813
4.98708
4.98676
4.98837
4.98845
4.98465
4.97897
4.9737
4.96557
4.95374
4.94035
4.92661
4.91192
4.8953
4.87544
4.85224
4.82817
4.80446
4.77766
4.74346
4.70488
4.66815
4.63078
4.58429
4.52708
4.46297
4.39317
4.31392
4.22253
4.11839
4.00039
3.86683
3.70403
3.49741
3.24992
2.96507
2.59261
1.94877
1.00404
0.36012
0.0572179
0.00684106
0.00358784
0.00245487
0.00201398
0.00182826
0.00180092
0.00182501
0.00189729
0.00209836
0.00238203
0.00272337
0.00317077
0.00375639
0.00455079
0.00551975
0.00669413
0.00812198
0.00985705
0.011939
0.0144097
0.0173126
0.020694
0.0246047
0.029107
0.0342589
0.0401348
0.0467228
0.053983
0.0620398
0.0710141
0.0807829
0.0912808
0.102631
0.114881
0.128049
0.142067
0.15675
0.172146
0.188318
0.205318
0.223164
0.241679
0.2608
0.280363
0.300488
0.321497
0.343036
0.364728
0.387008
0.410155
0.434262
0.459529
0.4865
0.515291
0.545854
0.57881
0.614292
0.646343
0.674141
0.700337
0.724308
0.739317
0.766439
0.793814
0.817483
0.838815
0.858717
0.877257
0.894665
0.91094
0.926162
0.940328
0.953465
0.965579
0.976693
0.986831
0.996027
1.00431
1.01172
1.01828
1.02401
1.02893
1.03306
1.03643
1.03905
1.04096
1.04218
1.04274
1.04268
1.04203
1.04082
1.03909
1.03685
1.03414
1.031
1.02743
1.02349
1.0192
1.01458
1.00968
1.00452
0.999138
0.993557
0.987803
0.981907
0.975889
0.969779
0.963595
0.957365
0.951107
0.944848
0.938603
0.932392
0.926223
0.92011
0.914056
0.908074
0.902171
0.89636
0.89065
0.885058
0.879592
0.874268
0.869094
0.864084
0.859243
0.854583
0.850107
0.845819
0.841722
0.837816
0.8341
0.830575
0.82724
0.824095
0.82114
0.818375
0.815802
0.81342
0.811231
0.809233
0.807425
0.805805
0.804369
0.803112
0.802026
0.801103
0.800329
0.799691
0.799167
0.798735
0.79836
0.798001
0.797592
0.797126
0.796858
0.796781
0.796794
0.796057
0.795116
0.788514
0.785526
0.742508
0.694777
7.18233
4.33823
3.56324
3.42419
3.35022
3.2974
3.2641
3.24498
3.23453
3.22877
3.22523
3.22251
3.2199
3.21711
3.21403
3.2107
3.20716
3.20351
3.1998
3.1961
3.19245
3.1889
3.18546
3.18216
3.17901
3.17601
3.17317
3.17048
3.16794
3.16555
3.1633
3.16119
3.1592
3.15734
3.15559
3.15395
3.1524
3.15096
3.1496
3.14833
3.14713
3.146
3.14495
3.14395
3.14301
3.14213
3.1413
3.14052
3.13978
3.13908
3.13842
3.13779
3.1372
3.13664
3.13611
3.1356
3.13512
3.13466
3.13422
3.13381
3.13341
3.13302
3.13266
3.13231
3.13197
3.13164
3.13133
3.13103
3.13073
3.13045
3.13017
3.1299
3.12964
3.12939
3.12914
3.12889
3.12865
3.12842
3.12819
3.12796
3.12774
3.12751
3.12729
3.12708
3.12686
3.12665
3.12643
3.12622
3.12601
3.1258
3.12559
3.12538
3.12517
3.12496
3.12475
3.12454
3.12433
3.12412
3.12391
3.1237
3.12348
3.12326
3.12305
3.12283
3.1226
3.12238
3.12215
3.12193
3.1217
3.12146
3.12123
3.12099
3.12075
3.1205
3.12026
3.12001
3.11975
3.11949
3.11923
3.11897
3.1187
3.11842
3.11815
3.11786
3.11758
3.11729
3.11699
3.11669
3.11638
3.11607
3.11575
3.11543
3.1151
3.11477
3.11443
3.11408
3.11373
3.11337
3.11301
3.11263
3.11225
3.11187
3.11147
3.11107
3.11066
3.11024
3.10982
3.10938
3.10894
3.10849
3.10803
3.10756
3.10708
3.10659
3.1061
3.10559
3.10507
3.10455
3.10401
3.10346
3.1029
3.10233
3.10174
3.10115
3.10054
3.09992
3.09929
3.09865
3.09799
3.09732
3.09663
3.09593
3.09521
3.09448
3.09374
3.09298
3.0922
3.0914
3.09059
3.08976
3.08892
3.08805
3.08717
3.08626
3.08534
3.08439
3.08343
3.08244
3.08143
3.0804
3.07934
3.07826
3.07715
3.07602
3.07486
3.07368
3.07246
3.07122
3.06995
3.06865
3.06731
3.06595
3.06455
3.06311
3.06164
3.06014
3.05859
3.05701
3.05539
3.05373
3.05203
3.05028
3.04849
3.04665
3.04477
3.04284
3.04085
3.03882
3.03673
3.03459
3.03239
3.03013
3.02782
3.02544
3.023
3.02049
3.01792
3.01527
3.01256
3.00977
3.0069
3.00396
3.00094
2.99783
2.99465
2.99137
2.98791
2.98505
2.98008
2.97263
2.96537
2.95764
2.94951
2.94118
2.93271
2.9241
2.91538
2.90654
2.89758
2.88849
2.87926
2.86988
2.86038
2.85065
2.84061
2.83025
2.81955
2.8085
2.7971
2.78532
2.77318
2.7607
2.74787
2.73472
2.72124
2.70744
2.69334
2.67893
2.66423
2.64925
2.63399
2.61848
2.60271
2.5867
2.57046
2.55401
2.53734
2.52044
2.50337
2.4861
2.46862
2.45097
2.43313
2.4151
2.39688
2.37848
2.3598
2.34093
2.32159
2.30126
2.28036
2.25899
2.23712
2.21471
2.19176
2.16824
2.14414
2.11944
2.09412
2.06817
2.04155
2.01426
1.98627
1.95754
1.92807
1.8978
1.86634
1.83392
1.80061
1.76637
1.73116
1.69494
1.65765
1.61927
1.57975
1.53903
1.49706
1.45379
1.40916
1.36311
1.31557
1.26647
1.21574
1.1633
1.10908
1.05301
0.994997
0.934985
0.872916
0.80876
0.742521
0.674284
0.604213
0.532718
0.460276
0.388197
0.31707
0.251238
0.182174
0.166231
0.219232
0.236068
0.259701
0.294542
0.335253
0.380772
0.432312
0.490597
0.556014
0.631694
0.72098
0.824221
0.942617
1.08207
1.24085
1.41553
1.58713
1.78116
1.99168
2.18442
2.40892
2.69753
2.95387
3.19199
3.43362
3.66714
3.87063
4.08355
4.29949
4.47066
4.63342
4.81474
5.01805
5.23001
5.41823
5.57483
5.71718
5.85407
5.98222
6.09577
6.19351
6.27962
6.35725
6.42363
6.47942
6.52719
6.56956
6.60751
6.64194
6.67305
6.70125
6.72666
6.74963
6.77097
6.79109
6.80973
6.82753
6.84568
6.86309
6.87987
6.8986
6.91998
6.9407
6.95844
6.97499
6.99316
7.01229
7.02916
7.0424
7.05547
7.07079
7.08551
7.09626
7.104
7.1128
7.12394
7.13337
7.13713
7.13905
7.14472
7.15209
7.15427
7.14958
7.14588
7.14631
7.14467
7.13733
7.12625
7.11381
7.10021
7.08451
7.06592
7.04503
7.02389
7.00186
6.97422
6.9388
6.90223
6.86989
6.83447
6.78627
6.72799
6.66744
6.60449
6.53165
6.44464
6.34309
6.22672
6.09302
5.92872
5.72343
5.48275
5.19444
4.78224
3.99961
2.59672
1.1502
0.201339
0.0241304
0.0126388
0.00867389
0.00712014
0.00646579
0.00636923
0.00645527
0.00671077
0.00741785
0.00841667
0.00961965
0.0111955
0.0132537
0.0160409
0.0194335
0.0235356
0.028507
0.0345228
0.0417053
0.0501782
0.0600636
0.0714859
0.0845746
0.0994845
0.116341
0.135303
0.156258
0.179011
0.203841
0.230994
0.260023
0.290654
0.323136
0.357494
0.393672
0.431411
0.470191
0.510077
0.551176
0.59355
0.637195
0.68169
0.726895
0.772481
0.818693
0.866203
0.914334
0.962377
1.01122
1.06144
1.11323
1.16695
1.22358
1.28325
1.3457
1.41179
1.48145
1.54449
1.59968
1.65178
1.69898
1.73302
1.78642
1.84043
1.8876
1.93096
1.97172
2.0102
2.04669
2.08125
2.11399
2.14491
2.17404
2.20139
2.22697
2.25082
2.27298
2.29348
2.31236
2.32964
2.34535
2.35951
2.37211
2.38319
2.39275
2.40083
2.40747
2.41269
2.41654
2.41906
2.4203
2.42029
2.41909
2.41672
2.41324
2.40868
2.4031
2.39655
2.38909
2.38078
2.37167
2.36182
2.35129
2.34013
2.32839
2.31614
2.30342
2.29028
2.27679
2.26298
2.24892
2.23465
2.22022
2.20565
2.19098
2.17624
2.16146
2.14666
2.13188
2.11716
2.10253
2.08803
2.07369
2.05955
2.04564
2.03199
2.01862
2.00555
1.9928
1.98038
1.96831
1.95658
1.94521
1.9342
1.92356
1.9133
1.90341
1.89392
1.88482
1.87611
1.86781
1.85991
1.85241
1.84531
1.83859
1.83226
1.82629
1.82066
1.81536
1.81035
1.80559
1.80103
1.79661
1.79223
1.78784
1.78385
1.78012
1.77667
1.77183
1.76751
1.75295
1.74926
1.67372
1.62636
8.25983
5.40445
4.34696
4.08193
3.98737
3.93376
3.90215
3.88542
3.87754
3.87414
3.87256
3.87137
3.86988
3.86786
3.86529
3.86226
3.85887
3.85526
3.85153
3.84776
3.84402
3.84036
3.83681
3.83341
3.83016
3.82707
3.82415
3.82139
3.81879
3.81636
3.81407
3.81193
3.80992
3.80805
3.80629
3.80465
3.80311
3.80167
3.80032
3.79906
3.79788
3.79677
3.79573
3.79476
3.79384
3.79298
3.79217
3.79141
3.79069
3.79001
3.78937
3.78877
3.7882
3.78766
3.78714
3.78666
3.78619
3.78575
3.78533
3.78493
3.78454
3.78418
3.78382
3.78349
3.78316
3.78285
3.78254
3.78225
3.78197
3.78169
3.78142
3.78116
3.78091
3.78066
3.78042
3.78018
3.77994
3.77971
3.77949
3.77926
3.77904
3.77882
3.7786
3.77839
3.77817
3.77796
3.77775
3.77754
3.77732
3.77711
3.7769
3.77669
3.77648
3.77627
3.77606
3.77584
3.77563
3.77542
3.7752
3.77498
3.77476
3.77454
3.77432
3.7741
3.77387
3.77364
3.77341
3.77318
3.77294
3.7727
3.77246
3.77222
3.77197
3.77172
3.77147
3.77121
3.77095
3.77069
3.77042
3.77015
3.76987
3.76959
3.76931
3.76902
3.76872
3.76842
3.76812
3.76781
3.7675
3.76718
3.76685
3.76652
3.76619
3.76585
3.7655
3.76514
3.76478
3.76442
3.76404
3.76366
3.76327
3.76288
3.76247
3.76206
3.76165
3.76122
3.76079
3.76034
3.75989
3.75943
3.75896
3.75849
3.758
3.75751
3.757
3.75649
3.75596
3.75543
3.75488
3.75433
3.75376
3.75318
3.75259
3.75199
3.75138
3.75075
3.75012
3.74947
3.7488
3.74813
3.74744
3.74673
3.74601
3.74528
3.74453
3.74377
3.74299
3.74219
3.74138
3.74055
3.7397
3.73884
3.73796
3.73705
3.73613
3.73519
3.73423
3.73324
3.73224
3.73121
3.73016
3.72909
3.72799
3.72686
3.72572
3.72454
3.72334
3.72211
3.72085
3.71956
3.71824
3.71689
3.71551
3.71409
3.71264
3.71116
3.70964
3.70808
3.70648
3.70485
3.70317
3.70145
3.69969
3.69789
3.69603
3.69414
3.69219
3.69019
3.68814
3.68604
3.68388
3.68167
3.6794
3.67707
3.67468
3.67222
3.6697
3.66711
3.66446
3.66173
3.65893
3.65605
3.65309
3.65005
3.64694
3.64373
3.64034
3.63756
3.63287
3.626
3.61947
3.61252
3.60509
3.5974
3.58955
3.58157
3.57347
3.56524
3.55688
3.54838
3.53973
3.53094
3.522
3.51285
3.50343
3.49373
3.48374
3.47345
3.46284
3.45189
3.44062
3.42903
3.41712
3.4049
3.39237
3.37953
3.36638
3.35292
3.33916
3.3251
3.31074
3.2961
3.28117
3.26596
3.25047
3.23471
3.21867
3.20235
3.18578
3.16893
3.15181
3.13443
3.11677
3.09883
3.08061
3.06211
3.04323
3.02405
3.00446
2.98423
2.96336
2.94192
2.91992
2.89733
2.87413
2.85029
2.8258
2.80064
2.77478
2.7482
2.72087
2.69277
2.66385
2.6341
2.60347
2.57193
2.539
2.50496
2.46986
2.43366
2.39628
2.35767
2.31777
2.27652
2.23383
2.18963
2.14384
2.09636
2.0471
1.99592
1.94272
1.88736
1.82967
1.76948
1.70661
1.64084
1.57193
1.49962
1.42359
1.34351
1.25903
1.16979
1.07539
0.975674
0.870366
0.76042
0.64546
0.532199
0.403994
0.370836
0.461463
0.493355
0.5357
0.59517
0.66252
0.73494
0.813349
0.897823
0.988002
1.08736
1.19916
1.32223
1.45698
1.60962
1.77614
1.95067
2.12666
2.32222
2.52419
2.70557
2.93404
3.23637
3.51463
3.7701
4.02735
4.2764
4.50087
4.73935
4.97267
5.14908
5.30137
5.47246
5.68075
5.91272
6.12515
6.30404
6.4663
6.62304
6.77228
6.90724
7.02584
7.13207
7.22953
7.31419
7.38655
7.44838
7.50277
7.55149
7.59589
7.63617
7.67289
7.7061
7.73625
7.76437
7.79094
7.81545
7.83817
7.85994
7.87946
7.89782
7.91896
7.94387
7.96831
7.98904
8.00821
8.02974
8.05286
8.07326
8.08911
8.10498
8.12414
8.14306
8.15709
8.1673
8.17908
8.19405
8.20687
8.21254
8.21643
8.22596
8.23819
8.2435
8.23961
8.23709
8.24123
8.24528
8.24329
8.23611
8.22648
8.2152
8.20161
8.1855
8.16804
8.15119
8.1331
8.10779
8.07409
8.04136
8.01522
7.98539
7.94052
7.88566
7.83201
7.77973
7.71911
7.64431
7.55493
7.45148
7.3313
7.18256
7.00019
6.79485
6.55132
6.18865
5.45753
4.05533
2.21055
0.482788
0.0590915
0.0311275
0.0215484
0.0177489
0.0161494
0.0159195
0.0161433
0.0167864
0.0185364
0.0210073
0.0239823
0.0278685
0.0329135
0.0397063
0.0479143
0.0577556
0.0695562
0.0836526
0.100232
0.119455
0.141454
0.166335
0.194191
0.225137
0.259212
0.296503
0.336607
0.378993
0.424002
0.471921
0.521883
0.573368
0.626723
0.681952
0.738945
0.797322
0.856359
0.916187
0.97701
1.03896
1.1021
1.16592
1.2303
1.29487
1.36007
1.4268
1.4942
1.56146
1.62976
1.69986
1.772
1.84674
1.92526
2.00771
2.09387
2.18485
2.2798
2.3661
2.44288
2.51576
2.58052
2.6321
2.70735
2.78276
2.84929
2.91123
2.96978
3.02546
3.07852
3.1291
3.17727
3.22304
3.26643
3.30743
3.34604
3.3823
3.41623
3.44789
3.47729
3.50447
3.52943
3.55219
3.57275
3.59113
3.60734
3.62142
3.63339
3.64331
3.65122
3.65718
3.66122
3.66342
3.66381
3.66244
3.65938
3.65468
3.6484
3.64062
3.6314
3.62081
3.60895
3.59587
3.58166
3.56639
3.55012
3.53294
3.51491
3.4961
3.47659
3.45644
3.43574
3.41453
3.3929
3.37087
3.34851
3.32584
3.30292
3.27978
3.25649
3.23309
3.20964
3.1862
3.16281
3.13953
3.11641
3.09349
3.07082
3.04843
3.02635
3.0046
2.98321
2.9622
2.94158
2.92137
2.90159
2.88225
2.86337
2.84497
2.82707
2.80967
2.79279
2.77643
2.7606
2.74531
2.73055
2.71631
2.70258
2.68935
2.67659
2.66427
2.65234
2.64077
2.62946
2.61832
2.60728
2.5968
2.58662
2.5769
2.56545
2.55535
2.5325
2.52619
2.43321
2.39963
8.5367
6.15356
4.84027
4.46946
4.34402
4.28244
4.24858
4.23162
4.22453
4.22238
4.22213
4.22214
4.22165
4.2204
4.21839
4.21573
4.21259
4.20912
4.20545
4.2017
4.19795
4.19426
4.19068
4.18724
4.18396
4.18085
4.17792
4.17516
4.17258
4.17016
4.16791
4.1658
4.16384
4.16201
4.16031
4.15872
4.15725
4.15587
4.15459
4.1534
4.15228
4.15124
4.15027
4.14937
4.14852
4.14772
4.14698
4.14628
4.14562
4.145
4.14442
4.14387
4.14336
4.14287
4.1424
4.14197
4.14155
4.14115
4.14077
4.14041
4.14007
4.13974
4.13942
4.13912
4.13883
4.13854
4.13827
4.13801
4.13775
4.1375
4.13726
4.13702
4.13679
4.13656
4.13634
4.13612
4.1359
4.13569
4.13548
4.13527
4.13506
4.13486
4.13465
4.13445
4.13424
4.13404
4.13384
4.13364
4.13343
4.13323
4.13303
4.13283
4.13262
4.13242
4.13221
4.132
4.13179
4.13158
4.13137
4.13116
4.13094
4.13073
4.13051
4.13029
4.13006
4.12984
4.12961
4.12938
4.12914
4.12891
4.12867
4.12843
4.12818
4.12794
4.12768
4.12743
4.12717
4.12691
4.12664
4.12637
4.1261
4.12582
4.12553
4.12525
4.12495
4.12466
4.12436
4.12405
4.12374
4.12342
4.1231
4.12277
4.12243
4.12209
4.12175
4.1214
4.12104
4.12067
4.1203
4.11993
4.11954
4.11915
4.11875
4.11834
4.11793
4.11751
4.11708
4.11664
4.11619
4.11574
4.11528
4.11481
4.11433
4.11384
4.11334
4.11284
4.11232
4.1118
4.11126
4.11072
4.11016
4.10959
4.10902
4.10843
4.10783
4.10722
4.10659
4.10596
4.10531
4.10465
4.10398
4.1033
4.1026
4.10189
4.10116
4.10042
4.09966
4.09889
4.09811
4.09731
4.09649
4.09565
4.0948
4.09393
4.09304
4.09214
4.09121
4.09027
4.0893
4.08832
4.08731
4.08628
4.08523
4.08415
4.08305
4.08193
4.08078
4.07961
4.07841
4.07718
4.07593
4.07464
4.07333
4.07198
4.07061
4.0692
4.06775
4.06628
4.06476
4.06322
4.06163
4.06
4.05834
4.05663
4.05489
4.05309
4.05126
4.04937
4.04744
4.04546
4.04343
4.04135
4.03922
4.03703
4.03478
4.03247
4.03011
4.02768
4.02518
4.02262
4.02
4.0173
4.01453
4.01168
4.00877
4.00576
4.00258
4.00002
3.9957
3.98947
3.98376
3.97774
3.97125
3.96447
3.95752
3.95043
3.94323
3.93589
3.92843
3.92084
3.9131
3.90522
3.8972
3.88897
3.88051
3.87182
3.86288
3.85367
3.84419
3.83441