/*--------------------------------*- C++ -*----------------------------------*\
  =========                 |
  \\      /  F ield         | OpenFOAM: The Open Source CFD Toolbox
   \\    /   O peration     | Website:  https://openfoam.org
    \\  /    A nd           | Version:  7
     \\/     M anipulation  |
\*---------------------------------------------------------------------------*/
FoamFile
{
    version     2.0;
    format      ascii;
    class       volScalarField;
    location    "801";
    object      k_LES;
}
// * * * * * * * * * * * * * * * * * * * * * * * * * * * * * * * * * * * * * //

dimensions      [0 2 -2 0 0 0 0];

internalField   nonuniform List<scalar> 
51626
(
1.18735
0.980105
0.77543
0.7331
0.725084
0.728494
0.734971
0.742224
0.750929
0.759426
0.769109
0.775188
0.779202
0.783137
0.787407
0.791545
0.793508
0.795193
0.797658
0.800095
0.800762
0.799239
0.800498
0.802682
0.803493
0.803692
0.803738
0.804629
0.805307
0.805342
0.806522
0.806842
0.807901
0.808243
0.807999
0.807012
0.80657
0.808392
0.810034
0.80894
0.807045
0.806091
0.807238
0.807298
0.808425
0.809314
0.809414
0.809205
0.807285
0.807546
0.808743
0.809526
0.811251
0.812018
0.811379
0.81177
0.811336
0.812354
0.814519
0.815736
0.815406
0.813835
0.812204
0.810451
0.809599
0.810578
0.811167
0.810187
0.808582
0.808549
0.809746
0.8105
0.810233
0.810271
0.810772
0.812426
0.812531
0.812236
0.811737
0.811276
0.810621
0.813297
0.814333
0.815063
0.813094
0.81284
0.813774
0.814623
0.81343
0.811187
0.811642
0.810983
0.809387
0.810804
0.811722
0.810176
0.808758
0.808783
0.809063
0.809284
0.807104
0.806829
0.805868
0.809239
0.810956
0.811451
0.811716
0.810167
0.809058
0.808613
0.80943
0.807802
0.805925
0.807707
0.809161
0.809692
0.808235
0.807343
0.805687
0.806555
0.806101
0.805586
0.804721
0.804164
0.802814
0.803334
0.803234
0.803906
0.804072
0.802641
0.801411
0.802623
0.802558
0.80178
0.800094
0.800725
0.802623
0.802227
0.800955
0.800026
0.800124
0.799608
0.799095
0.798279
0.795712
0.796949
0.797793
0.796975
0.796087
0.796125
0.797431
0.796419
0.796524
0.797066
0.795921
0.794726
0.795987
0.796729
0.796934
0.797757
0.797444
0.797414
0.7974
0.795631
0.794933
0.796322
0.795287
0.795013
0.795248
0.794776
0.793946
0.792778
0.791961
0.79133
0.790681
0.790256
0.789572
0.790377
0.790953
0.790134
0.788679
0.788848
0.788071
0.788723
0.787951
0.787911
0.7876
0.786043
0.786527
0.787541
0.786644
0.785761
0.786119
0.785
0.783768
0.783932
0.783216
0.783593
0.78411
0.784632
0.78676
0.787756
0.786653
0.785987
0.785236
0.783449
0.781325
0.781782
0.781455
0.780139
0.778402
0.778282
0.778178
0.778213
0.778843
0.777557
0.776531
0.776208
0.776617
0.776646
0.776986
0.778041
0.778581
0.779799
0.780089
0.778666
0.778602
0.777048
0.77481
0.774575
0.773181
0.771374
0.769204
0.768145
0.766636
0.766657
0.766615
0.76254
0.761471
0.761458
0.758654
0.755904
0.754324
0.75307
0.752293
0.750145
0.749784
0.747891
0.744558
0.741282
0.73889
0.737764
0.737377
0.737305
0.73675
0.734916
0.732876
0.731432
0.729451
0.725262
0.721804
0.718637
0.715879
0.713268
0.711145
0.707433
0.703287
0.698215
0.695627
0.693121
0.686111
0.68216
0.677972
0.673201
0.670306
0.665807
0.659848
0.655408
0.652647
0.64829
0.644331
0.640637
0.636124
0.633351
0.630945
0.626929
0.622816
0.619474
0.615952
0.61143
0.607421
0.604548
0.601743
0.598076
0.59431
0.591949
0.587587
0.583558
0.578658
0.573968
0.569636
0.565515
0.559719
0.553169
0.547286
0.543676
0.538955
0.534662
0.528368
0.522695
0.516077
0.510735
0.506436
0.500649
0.494027
0.487096
0.480187
0.47474
0.468501
0.461728
0.453892
0.447873
0.442451
0.435211
0.427521
0.41945
0.409444
0.400149
0.390806
0.384092
0.375361
0.365687
0.357123
0.348464
0.339417
0.329098
0.318647
0.308148
0.294478
0.296156
0.368373
0.361314
0.359661
0.363274
0.370724
0.375213
0.382472
0.391338
0.398495
0.405074
0.413764
0.424102
0.432531
0.441568
0.452577
0.464828
0.475385
0.488962
0.509759
0.515479
0.495884
0.500863
0.512166
0.51834
0.524692
0.536113
0.541674
0.544735
0.575379
0.608269
0.626867
0.630039
0.627018
0.63527
0.655508
0.676718
0.697173
0.720346
0.750969
0.789387
0.831695
0.879236
0.931576
0.992208
1.06208
1.13592
1.20778
1.28292
1.35941
1.43406
1.50547
1.56911
1.62837
1.68221
1.73416
1.78006
1.82004
1.8511
1.878
1.89764
1.91429
1.93223
1.9513
1.96459
1.97163
1.97882
1.99225
2.00845
2.01502
2.01955
2.02445
2.03764
2.05183
2.05829
2.06202
2.06978
2.0833
2.09205
2.09217
2.08875
2.09897
2.11459
2.12281
2.11667
2.11198
2.1184
2.12994
2.13712
2.14233
2.14303
2.13994
2.13829
2.13319
2.13416
2.13794
2.13613
2.12495
2.11498
2.11286
2.11545
2.11006
2.09046
2.07034
2.06205
2.0571
2.04708
2.03347
2.01942
2.00329
1.97896
1.93841
1.89295
1.8751
1.89366
1.79606
1.51385
1.90695
2.32117
1.68125
0.908866
0.493929
0.306756
0.220908
0.178528
0.147678
0.131806
0.122789
0.11589
0.113819
0.117367
0.122473
0.128312
0.135856
0.146385
0.159255
0.172314
0.191973
0.208735
0.226551
0.246093
0.268553
0.290086
0.312673
0.343464
0.373925
0.407616
0.445594
0.493672
0.538789
0.584803
0.636137
0.687896
0.747399
0.784547
0.824862
0.882302
0.94685
1.00026
1.05139
1.1039
1.1668
1.25007
1.28716
1.33661
1.37404
1.43806
1.49837
1.58465
1.65845
1.73234
1.84537
1.95101
2.02173
2.06142
2.11367
2.12174
2.1448
2.21591
2.27619
2.32345
2.35548
2.35584
2.35929
2.33854
2.32986
2.34172
2.34216
2.32143
2.31415
2.30729
2.25858
2.24958
2.22309
2.18265
2.18716
2.18645
2.16735
2.12252
2.10476
2.1124
2.09185
2.03074
1.99558
1.98098
1.95638
1.92545
1.90254
1.86497
1.8432
1.82048
1.79387
1.76885
1.73522
1.69663
1.64772
1.62322
1.60238
1.5793
1.5591
1.54213
1.52305
1.50719
1.48824
1.46404
1.4432
1.43101
1.41317
1.39675
1.3784
1.36106
1.34837
1.33408
1.31677
1.29458
1.27284
1.26
1.24892
1.23842
1.23005
1.21931
1.2094
1.2003
1.19218
1.18053
1.1701
1.1615
1.15223
1.14201
1.13405
1.12598
1.11761
1.11096
1.10461
1.09858
1.09251
1.08742
1.08072
1.07165
1.06589
1.05902
1.04903
1.03972
1.03103
1.02557
1.02476
1.02543
1.01969
1.01339
1.00788
1.00531
1.00409
0.999445
0.994951
0.994331
0.992678
0.989913
0.988121
0.983489
0.982199
0.982053
0.985547
0.984259
5.95412
5.20244
4.26557
4.05389
4.01847
4.03852
4.07414
4.1138
4.15703
4.19692
4.24427
4.27553
4.29805
4.31914
4.3396
4.36195
4.37374
4.38332
4.39655
4.40953
4.4159
4.41108
4.41687
4.42852
4.43251
4.43291
4.43433
4.43801
4.44254
4.44347
4.44921
4.45191
4.45822
4.46003
4.46014
4.45751
4.45494
4.46264
4.46906
4.46561
4.45862
4.45601
4.45981
4.46011
4.46425
4.4684
4.47152
4.47102
4.465
4.46575
4.47024
4.47591
4.48374
4.48603
4.48303
4.48561
4.48574
4.4911
4.49946
4.50533
4.50452
4.49617
4.48982
4.48209
4.47842
4.48235
4.48545
4.48283
4.47612
4.47502
4.48101
4.48364
4.48208
4.48196
4.48558
4.49334
4.49318
4.49111
4.48993
4.48761
4.48447
4.49456
4.49963
4.50337
4.49595
4.49485
4.50099
4.50461
4.50028
4.48979
4.49026
4.48619
4.47922
4.48532
4.48932
4.48306
4.47602
4.47822
4.4823
4.48486
4.47641
4.47497
4.46922
4.4831
4.4913
4.49369
4.49513
4.48828
4.48193
4.48059
4.48252
4.47547
4.46802
4.47366
4.47999
4.48207
4.47717
4.47408
4.46578
4.46763
4.46715
4.46423
4.46021
4.45814
4.45187
4.45382
4.45453
4.45643
4.45678
4.45128
4.44378
4.44748
4.44767
4.44401
4.438
4.44094
4.44698
4.44749
4.44394
4.43926
4.43835
4.43585
4.43464
4.43173
4.4213
4.42595
4.42844
4.42447
4.42024
4.42123
4.42684
4.42169
4.42061
4.42377
4.42049
4.41549
4.42096
4.4239
4.42259
4.4267
4.42537
4.42616
4.42651
4.42013
4.41644
4.42115
4.41743
4.41552
4.41607
4.41307
4.40795
4.4018
4.39843
4.3957
4.39245
4.38909
4.38587
4.38894
4.39351
4.38866
4.3825
4.3832
4.37914
4.38125
4.37724
4.37764
4.37583
4.3685
4.3703
4.37493
4.37106
4.36526
4.36608
4.36218
4.35756
4.35693
4.35381
4.35471
4.35705
4.36017
4.37101
4.37403
4.36953
4.36797
4.3657
4.35748
4.34625
4.34576
4.34461
4.33726
4.32781
4.32653
4.32618
4.32513
4.32685
4.32174
4.31945
4.3189
4.3193
4.31871
4.32052
4.32533
4.32594
4.3299
4.33161
4.32553
4.32384
4.31725
4.30861
4.30609
4.2979
4.28767
4.27639
4.27217
4.26409
4.26587
4.26614
4.2465
4.23815
4.23676
4.22486
4.21027
4.19863
4.18955
4.18364
4.17226
4.16854
4.15853
4.14138
4.12217
4.10817
4.10033
4.09614
4.09398
4.08929
4.07939
4.0678
4.05875
4.04825
4.02747
4.00889
3.99324
3.97726
3.96287
3.95034
3.93106
3.91097
3.88503
3.86845
3.85577
3.82272
3.80087
3.77841
3.75298
3.73512
3.71086
3.68003
3.65813
3.64172
3.61776
3.59469
3.57424
3.55173
3.53652
3.52121
3.49967
3.47688
3.45805
3.43875
3.41212
3.3903
3.3723
3.35516
3.33427
3.31228
3.29753
3.27318
3.25048
3.22436
3.19629
3.16925
3.14534
3.11341
3.07775
3.04653
3.02393
2.99724
2.97212
2.937
2.9037
2.86738
2.8356
2.80881
2.77609
2.73868
2.7003
2.6607
2.62667
2.58996
2.55098
2.50734
2.47268
2.44014
2.39791
2.35329
2.30684
2.25154
2.19703
2.14404
2.103
2.05231
1.99573
1.94327
1.89061
1.83348
1.77048
1.70539
1.63468
1.54324
1.50203
1.88209
1.87881
1.89053
1.92861
1.98417
2.02502
2.0788
2.14524
2.20439
2.25888
2.32352
2.39701
2.46173
2.52792
2.60446
2.68746
2.76288
2.85021
2.97306
3.03362
2.96692
2.99714
3.06565
3.10949
3.15194
3.21759
3.2598
3.28474
3.43731
3.60825
3.71224
3.74687
3.75018
3.80285
3.91215
4.02907
4.14289
4.27031
4.43425
4.6343
4.85471
5.10175
5.37126
5.67806
6.02717
6.39504
6.75386
7.12623
7.50214
7.86789
8.21994
8.53249
8.82148
9.084
9.33234
9.55243
9.74422
9.89658
10.0281
10.1241
10.2082
10.3001
10.3933
10.4598
10.5
10.5444
10.6096
10.6843
10.7218
10.7511
10.783
10.8434
10.9093
10.9457
10.9666
11.0036
11.0586
11.0983
11.1075
11.1053
11.1508
11.2082
11.2426
11.2278
11.2131
11.2391
11.2815
11.3083
11.3278
11.3296
11.3159
11.306
11.2804
11.2796
11.287
11.2706
11.2226
11.1812
11.1662
11.1631
11.1284
11.0413
10.9552
10.9106
10.8731
10.8138
10.7415
10.664
10.575
10.449
10.2612
10.0586
9.94856
9.96971
9.58352
8.21273
8.95514
9.97462
7.48243
4.3491
2.53476
1.66938
1.24494
1.02896
0.863124
0.775536
0.725617
0.686488
0.675969
0.695742
0.721727
0.754671
0.797295
0.855871
0.927435
0.997997
1.1001
1.19292
1.28909
1.39223
1.50686
1.61457
1.72856
1.88173
2.03609
2.20215
2.39283
2.63984
2.85994
3.07211
3.30657
3.55365
3.82217
4.02014
4.22495
4.4811
4.77066
5.04042
5.29827
5.53377
5.82201
6.19217
6.3984
6.62211
6.78424
7.06092
7.33855
7.71565
8.04569
8.36408
8.86988
9.34774
9.68141
9.9041
10.1392
10.2025
10.3076
10.6182
10.8638
11.048
11.2425
11.2662
11.3011
11.1941
11.1572
11.1871
11.2474
11.1679
11.1679
11.1233
10.961
10.9519
10.8231
10.6602
10.6595
10.6658
10.5787
10.4009
10.3271
10.3828
10.3099
10.0658
9.91212
9.8387
9.74372
9.61718
9.52156
9.3796
9.28382
9.17283
9.0576
8.95451
8.81535
8.62991
8.41467
8.30023
8.20446
8.11119
8.02758
7.94756
7.85745
7.78942
7.70825
7.59826
7.49681
7.43623
7.36789
7.29301
7.21847
7.13781
7.07979
7.00804
6.93441
6.83552
6.73863
6.67708
6.62168
6.56936
6.52852
6.47731
6.42848
6.38565
6.34658
6.28944
6.23403
6.19489
6.15141
6.09969
6.05695
6.02211
5.98381
5.95114
5.92088
5.89028
5.86102
5.83609
5.80609
5.76313
5.73305
5.70099
5.65144
5.60839
5.56711
5.53893
5.52958
5.53081
5.5069
5.47611
5.44843
5.4357
5.42581
5.40282
5.38351
5.37886
5.3705
5.35521
5.34643
5.32605
5.31806
5.31224
5.32538
5.31794
9.63418
8.93754
7.76386
7.45586
7.41105
7.44942
7.51286
7.58497
7.65144
7.7119
7.78132
7.83141
7.87041
7.90795
7.93961
7.97239
7.99409
8.01082
8.03123
8.05463
8.07025
8.06754
8.07669
8.09482
8.10195
8.10051
8.10223
8.10718
8.11659
8.12108
8.12827
8.13286
8.13988
8.14361
8.15003
8.15295
8.148
8.15411
8.16165
8.15938
8.15226
8.15082
8.15467
8.15406
8.15609
8.16074
8.16935
8.17281
8.17129
8.17322
8.17558
8.18579
8.1972
8.19826
8.19429
8.19945
8.20349
8.21161
8.21988
8.22715
8.22603
8.21201
8.20462
8.19855
8.1963
8.19986
8.20284
8.20349
8.1955
8.19159
8.19833
8.1982
8.19244
8.19011
8.19592
8.20757
8.21025
8.20887
8.20773
8.20556
8.20222
8.21165
8.21793
8.21895
8.21021
8.20886
8.21713
8.22217
8.21932
8.20478
8.20292
8.1935
8.18521
8.19279
8.19761
8.19071
8.18072
8.18512
8.19997
8.20574
8.19785
8.19484
8.18853
8.20484
8.21548
8.21662
8.21788
8.21079
8.20109
8.20052
8.19994
8.19009
8.18223
8.1854
8.19083
8.19196
8.18621
8.18243
8.1722
8.17142
8.17185
8.16765
8.16123
8.15889
8.1504
8.15138
8.15228
8.15453
8.15375
8.1468
8.13355
8.13267
8.13265
8.12594
8.1201
8.12605
8.12998
8.13469
8.1331
8.12886
8.12792
8.12231
8.11904
8.11622
8.1066
8.11146
8.11274
8.10696
8.10426
8.10697
8.11317
8.10441
8.10009
8.1029
8.10126
8.09937
8.10778
8.11245
8.10409
8.10708
8.10587
8.10844
8.10961
8.10561
8.10001
8.10503
8.09886
8.09532
8.09456
8.08709
8.07825
8.068
8.06315
8.05924
8.05606
8.05139
8.0468
8.04894
8.05453
8.05004
8.04341
8.04162
8.03482
8.03722
8.03113
8.03102
8.02513
8.01538
8.01848
8.02418
8.02082
8.01015
8.00825
8.00529
8.00041
7.99757
7.99413
7.99565
8.00066
8.00479
8.01983
8.02193
8.0174
8.01674
8.01668
8.00776
7.99229
7.98724
7.98463
7.97152
7.95586
7.95474
7.9508
7.94537
7.94541
7.94094
7.94084
7.94154
7.94183
7.94024
7.94402
7.94969
7.94904
7.95021
7.95094
7.9459
7.94022
7.93036
7.92275
7.91873
7.90194
7.88255
7.86875
7.86543
7.85371
7.85794
7.85768
7.83124
7.81586
7.81069
7.7988
7.78004
7.7577
7.74097
7.73063
7.71635
7.70853
7.69484
7.67048
7.64056
7.61521
7.60041
7.59186
7.58668
7.57793
7.56615
7.54935
7.53463
7.52058
7.49023
7.4649
7.44671
7.42265
7.39991
7.37932
7.35083
7.32265
7.28652
7.25616
7.23556
7.1941
7.16051
7.12715
7.09117
7.05906
7.02095
6.97306
6.943
6.91584
6.87635
6.83523
6.80129
6.77276
6.75123
6.72452
6.68963
6.65252
6.62303
6.59223
6.54819
6.51298
6.48108
6.4483
6.4142
6.37593
6.34767
6.30808
6.26953
6.22798
6.17856
6.12748
6.08316
6.02945
5.96806
5.91662
5.875
5.82903
5.78638
5.72685
5.66675
5.60573
5.54923
5.49656
5.43904
5.37366
5.30864
5.24043
5.17485
5.10615
5.0367
4.9618
4.90092
4.84038
4.76254
4.68182
4.59697
4.50125
4.40316
4.30748
4.23006
4.13761
4.03376
3.93447
3.83555
3.72266
3.59849
3.4718
3.32267
3.12655
2.96991
3.61211
3.66753
3.7317
3.84222
3.9812
4.09638
4.23151
4.3932
4.54662
4.68852
4.84522
5.01587
5.17218
5.32737
5.49815
5.67838
5.84937
6.03376
6.26738
6.42784
6.4156
6.50623
6.64521
6.74941
6.84909
6.97888
7.08162
7.15972
7.39924
7.6542
7.81857
7.9082
7.97295
8.10449
8.30542
8.51405
8.72268
8.95683
9.24311
9.57617
9.94224
10.3489
10.7868
11.2731
11.8095
12.3714
12.923
13.4871
14.0492
14.5934
15.1158
15.5755
15.9982
16.3824
16.7342
17.0413
17.3072
17.5246
17.7044
17.8366
17.9614
18.101
18.2317
18.3227
18.3874
18.471
18.57
18.6673
18.7282
18.7857
18.8552
18.9397
19.0217
19.0772
19.1256
19.1872
19.2497
19.29
19.3191
19.3545
19.4218
19.4675
19.4921
19.4965
19.5047
19.5437
19.5833
19.6056
19.6253
19.6189
19.5985
19.5829
19.5507
19.5461
19.538
19.491
19.4293
19.3912
19.3767
19.3432
19.2665
19.1526
19.0643
19.0133
18.9476
18.853
18.7461
18.6337
18.5023
18.3187
18.0998
17.9163
17.8143
17.8013
17.6088
16.5398
16.904
17.1505
13.026
8.04939
5.02692
3.52348
2.73165
2.31461
1.97265
1.78667
1.67949
1.59309
1.57236
1.61546
1.66498
1.73686
1.82959
1.95594
2.11123
2.25685
2.4594
2.65436
2.84902
3.05521
3.27561
3.47634
3.68743
3.97504
4.269
4.57377
4.9368
5.41092
5.81412
6.18336
6.59472
7.03491
7.50313
7.88697
8.27432
8.70614
9.1909
9.69576
10.1776
10.5819
11.0777
11.6976
12.0998
12.4698
12.7446
13.1918
13.6738
14.3049
14.8599
15.385
16.2436
17.0623
17.6651
18.1335
18.5487
18.6975
18.8667
19.387
19.7688
20.0586
20.4522
20.5273
20.6084
20.4265
20.3824
20.3983
20.5551
20.4505
20.491
20.4135
20.2275
20.257
20.0375
19.7959
19.7717
19.7772
19.6402
19.3794
19.28
19.3841
19.277
18.9286
18.682
18.5401
18.3949
18.2008
18.0399
17.8276
17.661
17.4591
17.2624
17.0899
16.8726
16.5389
16.1688
15.9605
15.7854
15.6261
15.4897
15.3504
15.1783
15.0568
14.9187
14.7277
14.5354
14.4074
14.2967
14.16
14.0375
13.8978
13.7873
13.6407
13.5047
13.3328
13.167
13.0526
12.9386
12.8271
12.7394
12.639
12.5369
12.4554
12.3816
12.2775
12.1678
12.0893
12.001
11.8962
11.8023
11.7383
11.6698
11.6057
11.5439
11.4799
11.419
11.3676
11.309
11.2302
11.166
11.1064
11.0152
10.9384
10.8652
10.8074
10.7712
10.7557
10.7175
10.6659
10.6117
10.5834
10.5553
10.5062
10.4772
10.4604
10.4349
10.3971
10.3739
10.3384
10.3166
10.2945
10.2976
10.2785
10.5614
10.1553
9.2854
9.03736
9.01177
9.06201
9.1379
9.22398
9.29308
9.35676
9.42486
9.47979
9.52148
9.56554
9.60134
9.63003
9.65202
9.6697
9.68885
9.71232
9.73191
9.73528
9.74515
9.76213
9.77403
9.77278
9.77189
9.7755
9.78383
9.79172
9.79734
9.80073
9.80305
9.80902
9.82022
9.83009
9.8254
9.82796
9.83536
9.83333
9.8262
9.8247
9.8302
9.82737
9.82347
9.82422
9.83448
9.84434
9.84896
9.85578
9.85568
9.86542
9.87732
9.87956
9.8754
9.88126
9.88617
9.89442
9.90088
9.90339
9.90167
9.88816
9.88118
9.87969
9.8796
9.88245
9.88379
9.88719
9.8816
9.87541
9.87781
9.87452
9.8648
9.85773
9.86382
9.8752
9.88175
9.8826
9.87971
9.88138
9.88165
9.8881
9.89009
9.88553
9.87599
9.87333
9.8784
9.87998
9.87823
9.86836
9.86431
9.85264
9.84625
9.85259
9.85769
9.85649
9.8488
9.84734
9.86552
9.87354
9.86846
9.86612
9.86444
9.87822
9.89
9.8884
9.8864
9.88263
9.87574
9.87549
9.87281
9.86314
9.85736
9.85592
9.85719
9.85542
9.85056
9.84431
9.83557
9.83458
9.83559
9.83091
9.8222
9.81868
9.81146
9.81068
9.80908
9.81019
9.80751
9.79876
9.78529
9.77874
9.77561
9.7704
9.76572
9.77068
9.77205
9.77686
9.77662
9.77757
9.78064
9.77232
9.76604
9.76401
9.75889
9.76258
9.76334
9.75771
9.75913
9.76295
9.76841
9.75941
9.75463
9.75362
9.75214
9.75561
9.76616
9.77293
9.76188
9.75807
9.75536
9.75731
9.76091
9.76144
9.75762
9.76142
9.75177
9.74527
9.74225
9.7327
9.72413
9.71202
9.70465
9.70263
9.70276
9.70038
9.69823
9.69713
9.69667
9.69448
9.69151
9.68534
9.67858
9.68149
9.67749
9.67664
9.66914
9.66023
9.66231
9.66581
9.66484
9.65474
9.64953
9.64774
9.64325
9.6394
9.63844
9.6448
9.65129
9.65316
9.66554
9.66587
9.66256
9.66381
9.66538
9.66142
9.64913
9.64246
9.63908
9.62264
9.60683
9.60687
9.59801
9.5895
9.58742
9.58536
9.58483
9.58423
9.58693
9.58445
9.58759
9.59419
9.59659
9.59402
9.59141
9.5876
9.58145
9.56902
9.5648
9.56565
9.5476
9.52405
9.51337
9.51198
9.50297
9.505
9.50341
9.48116
9.4653
9.45922
9.45375
9.443
9.42204
9.40587
9.3983
9.39005
9.38204
9.37083
9.35071
9.32435
9.29948
9.28579
9.27703
9.2706
9.26261
9.25756
9.2452
9.233
9.22495
9.20035
9.18057
9.16994
9.15317
9.13435
9.11606
9.09021
9.06474
9.03499
9.0054
8.98216
8.95097
8.92388
8.89534
8.86745
8.83691
8.79984
8.75531
8.73034
8.70535
8.66619
8.62336
8.58957
8.56866
8.55401
8.52928
8.49497
8.45822
8.43298
8.40533
8.36521
8.33011
8.29745
8.26167
8.22953
8.18875
8.15604
8.11973
8.08031
8.03815
7.98689
7.93181
7.88056
7.82506
7.76067
7.70746
7.66168
7.61253
7.56867
7.50892
7.4436
7.38042
7.31883
7.25628
7.19402
7.12596
7.05834
6.98769
6.91218
6.8327
6.75699
6.678
6.61231
6.5427
6.45502
6.3656
6.27008
6.16563
6.05866
5.95228
5.86337
5.76016
5.64442
5.53193
5.41902
5.28205
5.12945
4.97774
4.78499
4.52096
4.24539
4.9377
5.07517
5.20805
5.39698
5.62071
5.81845
6.03569
6.28529
6.53083
6.7577
6.99556
7.2434
7.47377
7.69763
7.93163
8.17055
8.4023
8.64367
8.91941
9.14389
9.266
9.45863
9.65226
9.81373
9.97349
10.1533
10.3132
10.4709
10.7256
10.9375
11.0722
11.1863
11.3349
11.5542
11.8122
12.0584
12.3093
12.5951
12.9259
13.2915
13.685
14.1141
14.5707
15.0617
15.5818
16.1194
16.6491
17.1848
17.7108
18.2155
18.6939
19.109
19.4885
19.8346
20.1411
20.3973
20.6129
20.792
20.9322
21.0312
21.1392
21.2653
21.3731
21.441
21.495
21.5791
21.6747
21.7567
21.8114
21.8758
21.9599
22.0432
22.1021
22.1495
22.2144
22.2858
22.337
22.3527
22.3865
22.4581
22.5327
22.5421
22.5324
22.5446
22.5884
22.6413
22.6707
22.6765
22.6856
22.6678
22.6451
22.6259
22.603
22.6083
22.591
22.5201
22.4581
22.4432
22.4499
22.4
22.2955
22.1927
22.1434
22.1271
22.0745
21.991
21.8967
21.8093
21.6962
21.5359
21.403
21.39
21.4461
21.4862
21.7823
22.5887
23.2718
22.3904
17.1052
11.0024
7.25402
5.36789
4.31312
3.74147
3.23876
2.95708
2.79146
2.65317
2.62195
2.68791
2.75313
2.86289
3.00467
3.19771
3.43703
3.64884
3.93552
4.22231
4.49708
4.78787
5.088
5.35329
5.62789
6.01494
6.41569
6.81487
7.31337
7.96282
8.49882
8.97565
9.51271
10.0835
10.6947
11.2177
11.7391
12.2817
12.8867
13.5621
14.2104
14.7307
15.3657
16.1403
16.6904
17.1514
17.5019
18.0424
18.673
19.4679
20.1675
20.8313
21.9218
22.9744
23.7879
24.4761
25.0272
25.2501
25.4525
26.1103
26.5766
26.9426
27.4872
27.6025
27.7262
27.5128
27.4743
27.4702
27.6808
27.5746
27.6489
27.5655
27.4035
27.4797
27.2096
26.9328
26.8871
26.8679
26.7047
26.4174
26.3307
26.4423
26.3056
25.9291
25.631
25.4314
25.2513
25.0212
24.8139
24.5566
24.3336
24.0654
23.8084
23.5685
23.3045
22.8704
22.3812
22.0896
21.8501
21.6316
21.4546
21.2727
21.0289
20.8544
20.6659
20.4143
20.1508
19.954
19.8032
19.6163
19.4532
19.2665
19.1012
18.8849
18.6857
18.4592
18.235
18.0761
17.9054
17.7294
17.585
17.4366
17.279
17.1573
17.0472
16.9051
16.7485
16.6268
16.4937
16.3388
16.194
16.0983
16.0011
15.9072
15.8092
15.7119
15.6152
15.5286
15.4374
15.3296
15.2324
15.1484
15.0246
14.9205
14.8213
14.7339
14.6657
14.6183
14.5633
14.4995
14.4234
14.3722
14.3228
14.2471
14.2067
14.1732
14.1235
14.0583
14.0125
13.9605
13.9211
13.8814
13.8608
13.8252
10.2743
10.04
9.48508
9.35217
9.36397
9.42651
9.50522
9.59022
9.65801
9.71651
9.7754
9.82503
9.86368
9.90628
9.94238
9.96608
9.9832
9.99656
10.0114
10.0283
10.0428
10.0521
10.0606
10.0731
10.0865
10.0892
10.0893
10.09
10.0936
10.1011
10.1021
10.1024
10.1024
10.1086
10.1194
10.1319
10.1278
10.1304
10.1376
10.1366
10.1286
10.1256
10.1324
10.1294
10.1219
10.1195
10.1268
10.1379
10.1431
10.1543
10.1577
10.167
10.176
10.1804
10.1762
10.1809
10.1833
10.1915
10.1969
10.1942
10.1915
10.183
10.1765
10.1735
10.1727
10.1773
10.1797
10.1828
10.1794
10.1731
10.1704
10.167
10.1588
10.1513
10.1547
10.1614
10.1652
10.1677
10.1638
10.1682
10.1724
10.1768
10.1732
10.1669
10.16
10.1557
10.1578
10.1537
10.15
10.1449
10.1384
10.1276
10.1248
10.1295
10.1354
10.1394
10.1366
10.1293
10.1388
10.1455
10.1422
10.1424
10.1445
10.1552
10.1681
10.1684
10.1636
10.1597
10.1575
10.158
10.1551
10.1477
10.1461
10.1413
10.1383
10.1339
10.1292
10.1219
10.1143
10.113
10.1142
10.1077
10.0964
10.0909
10.0876
10.0861
10.0827
10.08
10.0744
10.0651
10.0537
10.0443
10.0382
10.0363
10.0315
10.0332
10.0329
10.0326
10.0336
10.039
10.0445
10.0371
10.0305
10.0271
10.0235
10.0257
10.0261
10.0241
10.0251
10.0295
10.0365
10.0303
10.0243
10.021
10.0188
10.0216
10.0319
10.0402
10.0338
10.0246
10.021
10.0213
10.0281
10.0319
10.0292
10.0286
10.0191
10.0128
10.0075
9.99755
9.98904
9.97561
9.96483
9.96466
9.96811
9.96883
9.97042
9.96859
9.96368
9.95933
9.96012
9.95353
9.94586
9.94814
9.94746
9.94866
9.94438
9.93797
9.93674
9.93587
9.93366
9.92682
9.92141
9.91848
9.91425
9.91053
9.91125
9.92235
9.92901
9.92864
9.93837
9.93906
9.93608
9.93891
9.94128
9.9401
9.93185
9.92359
9.92189
9.90742
9.89399
9.8939
9.88333
9.87214
9.86926
9.86858
9.86662
9.86465
9.86719
9.86327
9.86179
9.87147
9.87686
9.87437
9.87129
9.86466
9.86045
9.8497
9.84335
9.84954
9.83941
9.82091
9.8111
9.80904
9.80269
9.79978
9.79674
9.78094
9.76679
9.76419
9.7635
9.76069
9.74694
9.73534
9.73535
9.73439
9.72781
9.71929
9.7079
9.69005
9.67319
9.66457
9.65724
9.65212
9.6472
9.64947
9.64504
9.63708
9.63663
9.62481
9.61252
9.60712
9.60201
9.59116
9.57971
9.56104
9.54149
9.52082
9.49905
9.47762
9.45574
9.44014
9.41983
9.40432
9.38601
9.35707
9.3249
9.30875
9.29027
9.26034
9.22726
9.20096
9.18742
9.18098
9.16534
9.13828
9.10657
9.08976
9.07446
9.04573
9.01724
8.99087
8.96246
8.94061
8.90662
8.87798
8.85202
8.82103
8.78331
8.74206
8.69541
8.64957
8.60348
8.54961
8.50491
8.46264
8.41943
8.38157
8.33405
8.27891
8.22719
8.17315
8.11385
8.05884
8.00348
7.9479
7.88954
7.82038
7.74654
7.68094
7.61335
7.55707
7.49349
7.41487
7.33577
7.24957
7.15575
7.06406
6.97018
6.88967
6.79838
6.69657
6.59896
6.49822
6.36623
6.21685
6.07115
5.87438
5.58767
5.23096
5.83402
6.03967
6.2322
6.48346
6.77421
7.04002
7.32
7.63183
7.94303
8.2296
8.51881
8.80667
9.07341
9.32775
9.58192
9.83046
10.0713
10.3186
10.5764
10.7977
11.0131
11.3034
11.5402
11.7436
11.9533
12.1728
12.3791
12.6191
12.8818
13.0174
13.0801
13.1755
13.3751
13.6635
13.9609
14.2198
14.4798
14.7791
15.1145
15.4692
15.8376
16.2261
16.6347
17.0569
17.4834
17.9148
18.3356
18.754
19.1583
19.5408
19.8995
20.2042
20.4799
20.7299
20.9433
21.1096
21.2404
21.3475
21.4256
21.4719
21.5371
21.6225
21.6897
21.7249
21.7511
21.8121
21.8846
21.9461
21.9836
22.0334
22.1099
22.1844
22.2188
22.248
22.3108
22.3792
22.4199
22.4184
22.4413
22.5247
22.6012
22.5914
22.554
22.5579
22.6197
22.6854
22.7146
22.7116
22.708
22.6856
22.6636
22.6375
22.6243
22.6436
22.6305
22.5535
22.4902
22.4885
22.5139
22.4699
22.3593
22.2702
22.2482
22.2666
22.2475
22.1941
22.1299
22.0856
22.0121
21.901
21.8581
21.9972
22.2319
22.3966
23.062
25.7164
27.7077
26.1549
20.1293
13.2626
9.08535
7.01921
5.81201
5.14539
4.51716
4.1546
3.93544
3.74507
3.70193
3.78456
3.85496
3.99354
4.1745
4.42297
4.73304
4.99198
5.3373
5.69335
6.02102
6.36878
6.71819
7.02193
7.32772
7.77791
8.24955
8.70481
9.29854
10.0664
10.6914
11.2407
11.8645
12.5169
13.2231
13.8408
14.4478
15.0561
15.7345
16.5211
17.2858
17.8844
18.611
19.4801
20.1366
20.6643
21.0622
21.6482
22.3909
23.2897
24.0901
24.8475
26.0835
27.2993
28.2774
29.1374
29.7852
30.0664
30.2882
31.0383
31.5686
31.9999
32.6483
32.7827
32.94
32.7204
32.688
32.6734
32.9035
32.7982
32.8807
32.8067
32.6766
32.7859
32.4929
32.1964
32.1333
32.0795
31.894
31.6035
31.5442
31.6352
31.4639
31.0833
30.7559
30.5106
30.3001
30.0505
29.8108
29.5164
29.2455
28.9323
28.6325
28.3225
28.022
27.5262
26.9485
26.5798
26.2883
26.0226
25.8095
25.5926
25.2947
25.0712
24.835
24.5328
24.2195
23.9649
23.7746
23.5483
23.3492
23.1197
22.9014
22.6316
22.3756
22.1099
21.8353
21.6345
21.4162
21.182
20.9829
20.7941
20.5867
20.4242
20.277
20.1016
19.9044
19.7399
19.5686
19.3745
19.1899
19.0612
18.9389
18.8195
18.6875
18.5586
18.4286
18.3052
18.1829
18.0506
17.9249
17.8184
17.6727
17.5451
17.4246
17.3119
17.2181
17.1377
17.062
16.9865
16.8943
16.8167
16.7448
16.6497
16.5918
16.5414
16.4702
16.3807
16.3087
16.2407
16.1843
16.1291
16.0853
16.0324
9.72186
9.58417
9.20099
9.14523
9.19021
9.26604
9.34635
9.42706
9.49361
9.5469
9.59594
9.63731
9.67272
9.70745
9.73971
9.75795
9.7725
9.78103
9.79158
9.80178
9.80765
9.81689
9.82351
9.83109
9.84189
9.84861
9.85334
9.85188
9.85006
9.85424
9.85018
9.84724
9.84744
9.85224
9.86068
9.87179
9.86819
9.86996
9.87655
9.87757
9.87116
9.86565
9.87184
9.87081
9.86358
9.8605
9.86399
9.87242
9.87653
9.88709
9.89565
9.90422
9.90909
9.91386
9.91139
9.91275
9.91295
9.91875
9.92279
9.91907
9.91605
9.91238
9.9062
9.90111
9.89872
9.90359
9.90791
9.90746
9.90654
9.90327
9.89896
9.89627
9.89128
9.88464
9.88176
9.88504
9.88519
9.88772
9.88369
9.88733
9.89261
9.8964
9.89141
9.88571
9.88324
9.87936
9.8782
9.87223
9.86621
9.86028
9.85183
9.84272
9.84258
9.84609
9.85032
9.855
9.85627
9.84949
9.8484
9.84997
9.84843
9.8511
9.85615
9.86199
9.87442
9.87889
9.87518
9.86896
9.86862
9.87043
9.86908
9.86467
9.86873
9.86352
9.85747
9.85141
9.84399
9.83562
9.8305
9.82668
9.82668
9.81825
9.80711
9.79969
9.79796
9.79756
9.79583
9.78993
9.78192
9.77194
9.76197
9.75287
9.74588
9.74443
9.73838
9.73841
9.73722
9.73248
9.73491
9.74087
9.7442
9.7408
9.7366
9.7299
9.72531
9.72595
9.72562
9.72818
9.72767
9.73294
9.74112
9.7374
9.728
9.7253
9.7236
9.72305
9.73162
9.74045
9.73922
9.72662
9.72336
9.72362
9.73314
9.74
9.73619
9.73207
9.72498
9.72162
9.71348
9.70438
9.69389
9.68067
9.66939
9.6685
9.6726
9.67572
9.67791
9.67671
9.67228
9.66673
9.66921
9.66406
9.65433
9.65521
9.65554
9.65956
9.65958
9.65758
9.65434
9.64969
9.64175
9.63723
9.63495
9.6317
9.62801
9.62566
9.62599
9.63592
9.64371
9.64235
9.65051
9.65349
9.65095
9.65461
9.65808
9.65723
9.65057
9.64188
9.64109
9.6331
9.62112
9.61905
9.60963
9.59889
9.59567
9.59457
9.59158
9.589
9.58964
9.58576
9.57857
9.58775
9.59438
9.59456
9.59234
9.5844
9.58108
9.57502
9.56561
9.57021
9.56931
9.56242
9.55398
9.54982
9.54529
9.53795
9.5321
9.52096
9.50875
9.51136
9.51474
9.5164
9.50815
9.49898
9.50538
9.51038
9.50853
9.50278
9.4999
9.49122
9.48108
9.47686
9.4729
9.47142
9.47007
9.47711
9.47926
9.47451
9.47841
9.47788
9.47201
9.46957
9.47281
9.46808
9.46189
9.45096
9.43928
9.42635
9.4113
9.39444
9.37753
9.36978
9.35577
9.34969
9.34477
9.32675
9.3063
9.29798
9.28601
9.26747
9.24491
9.22763
9.22105
9.21938
9.21271
9.19461
9.16945
9.15743
9.15474
9.13543
9.11499
9.09703
9.07809
9.06786
9.04391
9.02404
9.0075
8.98786
8.95712
8.92724
8.89133
8.8566
8.82288
8.78253
8.74762
8.71271
8.67756
8.64819
8.61364
8.57347
8.53709
8.49436
8.44432
8.4009
8.36136
8.32076
8.27812
8.2219
8.16054
8.11014
8.05731
8.01608
7.9666
7.90285
7.84015
7.77092
7.69489
7.62637
7.5532
7.48932
7.41806
7.33913
7.26793
7.19161
7.07952
6.95048
6.8245
6.64631
6.36587
5.96724
6.43429
6.68266
6.91928
7.21464
7.55364
7.8699
8.19268
8.54452
8.89595
9.21838
9.53458
9.8359
10.1108
10.3679
10.6154
10.8452
11.063
11.2838
11.4964
11.6721
11.8984
12.2327
12.4965
12.7207
12.9584
13.2036
13.4425
13.7434
14.0279
14.119
14.1198
14.1768
14.3849
14.7099
15.0368
15.3069
15.5687
15.8687
16.2017
16.5439
16.8887
17.2377
17.5974
17.9559
18.2982
18.634
18.9507
19.2536
19.5414
19.8094
20.0568
20.2603
20.4405
20.5977
20.7247
20.8135
20.8723
20.9125
20.9351
20.9346
20.954
20.9956
21.0249
21.0326
21.0304
21.0641
21.1085
21.1493
21.1683
21.1947
21.2538
21.3163
21.3339
21.3428
21.3931
21.4506
21.4809
21.4721
21.4797
21.5541
21.6289
21.6188
21.566
21.5551
21.6168
21.6876
21.7185
21.714
21.7017
21.6792
21.658
21.6255
21.6153
21.6426
21.6385
21.5655
21.499
21.4998
21.5334
21.5046
21.4019
21.3208
21.3109
21.3475
21.3593
21.3369
21.301
21.2915
21.2577
21.1932
21.2125
21.4432
21.8144
22.1173
22.9894
26.8158
30.619
28.9731
22.5064
15.0443
10.5741
8.44245
7.16198
6.44787
5.72955
5.30249
5.03601
4.79591
4.73879
4.82945
4.89611
5.0517
5.25984
5.55078
5.91409
6.20153
6.5831
6.98793
7.34609
7.72763
8.10481
8.43192
8.74842
9.23566
9.75131
10.2407
10.8995
11.7434
12.4294
13.031
13.7169
14.4214
15.189
15.8731
16.5334
17.1796
17.9064
18.7668
19.6162
20.2692
21.0577
21.9897
22.7253
23.3111
23.7378
24.3471
25.1768
26.1465
27.0272
27.8467
29.1749
30.51
31.6224
32.6151
33.3338
33.6607
33.8956
34.7158
35.3003
35.7872
36.5067
36.6534
36.8329
36.6216
36.5907
36.5751
36.8094
36.7035
36.7762
36.7143
36.616
36.7396
36.4405
36.1288
36.0491
35.9619
35.7518
35.463
35.4294
35.4887
35.2792
34.8943
34.5515
34.27
34.0313
33.7711
33.5092