/*--------------------------------*- C++ -*----------------------------------*\
  =========                 |
  \\      /  F ield         | OpenFOAM: The Open Source CFD Toolbox
   \\    /   O peration     | Website:  https://openfoam.org
    \\  /    A nd           | Version:  7
     \\/     M anipulation  |
\*---------------------------------------------------------------------------*/
FoamFile
{
    version     2.0;
    format      ascii;
    class       volScalarField;
    location    "2000";
    object      nut;
}
// * * * * * * * * * * * * * * * * * * * * * * * * * * * * * * * * * * * * * //

dimensions      [0 2 -1 0 0 0 0];

internalField   nonuniform List<scalar> 
51626
(
2.98321e-08
6.93209e-09
5.50154e-09
5.3744e-09
5.16223e-09
4.99479e-09
4.88479e-09
4.81608e-09
4.77407e-09
4.74796e-09
4.73057e-09
4.71756e-09
4.70649e-09
4.69614e-09
4.68591e-09
4.67561e-09
4.66521e-09
4.65476e-09
4.64438e-09
4.63414e-09
4.62413e-09
4.61442e-09
4.60505e-09
4.59607e-09
4.58748e-09
4.57931e-09
4.57155e-09
4.5642e-09
4.55726e-09
4.5507e-09
4.54452e-09
4.5387e-09
4.53322e-09
4.52806e-09
4.52321e-09
4.51866e-09
4.51437e-09
4.51034e-09
4.50655e-09
4.50298e-09
4.49962e-09
4.49647e-09
4.49349e-09
4.49069e-09
4.48805e-09
4.48556e-09
4.48321e-09
4.48099e-09
4.4789e-09
4.47691e-09
4.47504e-09
4.47326e-09
4.47158e-09
4.46998e-09
4.46846e-09
4.46702e-09
4.46565e-09
4.46434e-09
4.4631e-09
4.46191e-09
4.46077e-09
4.45968e-09
4.45863e-09
4.45763e-09
4.45667e-09
4.45574e-09
4.45485e-09
4.45398e-09
4.45315e-09
4.45234e-09
4.45156e-09
4.4508e-09
4.45006e-09
4.44934e-09
4.44863e-09
4.44794e-09
4.44727e-09
4.4466e-09
4.44595e-09
4.44531e-09
4.44468e-09
4.44406e-09
4.44345e-09
4.44284e-09
4.44224e-09
4.44165e-09
4.44106e-09
4.44047e-09
4.43989e-09
4.43931e-09
4.43873e-09
4.43816e-09
4.43758e-09
4.43701e-09
4.43643e-09
4.43585e-09
4.43528e-09
4.4347e-09
4.43411e-09
4.43353e-09
4.43294e-09
4.43235e-09
4.43175e-09
4.43115e-09
4.43055e-09
4.42994e-09
4.42932e-09
4.4287e-09
4.42807e-09
4.42743e-09
4.42679e-09
4.42614e-09
4.42548e-09
4.42482e-09
4.42414e-09
4.42346e-09
4.42277e-09
4.42206e-09
4.42135e-09
4.42063e-09
4.41989e-09
4.41915e-09
4.41839e-09
4.41762e-09
4.41684e-09
4.41604e-09
4.41523e-09
4.41441e-09
4.41358e-09
4.41273e-09
4.41186e-09
4.41098e-09
4.41008e-09
4.40917e-09
4.40824e-09
4.40729e-09
4.40633e-09
4.40535e-09
4.40435e-09
4.40333e-09
4.40228e-09
4.40122e-09
4.40014e-09
4.39904e-09
4.39791e-09
4.39677e-09
4.3956e-09
4.3944e-09
4.39319e-09
4.39195e-09
4.39068e-09
4.38939e-09
4.38807e-09
4.38673e-09
4.38536e-09
4.38396e-09
4.38253e-09
4.38107e-09
4.37959e-09
4.37807e-09
4.37652e-09
4.37494e-09
4.37332e-09
4.37168e-09
4.36999e-09
4.36828e-09
4.36652e-09
4.36473e-09
4.3629e-09
4.36103e-09
4.35912e-09
4.35717e-09
4.35518e-09
4.35315e-09
4.35107e-09
4.34894e-09
4.34677e-09
4.34455e-09
4.34229e-09
4.33997e-09
4.3376e-09
4.33518e-09
4.3327e-09
4.33017e-09
4.32758e-09
4.32493e-09
4.32222e-09
4.31945e-09
4.31662e-09
4.31372e-09
4.31075e-09
4.30771e-09
4.3046e-09
4.30142e-09
4.29816e-09
4.29483e-09
4.29141e-09
4.28791e-09
4.28433e-09
4.28067e-09
4.27691e-09
4.27306e-09
4.26912e-09
4.26508e-09
4.26095e-09
4.25671e-09
4.25236e-09
4.24791e-09
4.24334e-09
4.23866e-09
4.23386e-09
4.22895e-09
4.2239e-09
4.21873e-09
4.21343e-09
4.20799e-09
4.20241e-09
4.19669e-09
4.19082e-09
4.1848e-09
4.17862e-09
4.17229e-09
4.16578e-09
4.15911e-09
4.15227e-09
4.14524e-09
4.13803e-09
4.13063e-09
4.12304e-09
4.11525e-09
4.10725e-09
4.09905e-09
4.09063e-09
4.08199e-09
4.07311e-09
4.0641e-09
4.05438e-09
4.04671e-09
4.03283e-09
4.01178e-09
3.99187e-09
3.97087e-09
3.94931e-09
3.92742e-09
3.90525e-09
3.88284e-09
3.86024e-09
3.83745e-09
3.81445e-09
3.79124e-09
3.76782e-09
3.74415e-09
3.7203e-09
3.6957e-09
3.66972e-09
3.64218e-09
3.61306e-09
3.58239e-09
3.55025e-09
3.51664e-09
3.48167e-09
3.44547e-09
3.40815e-09
3.36983e-09
3.33062e-09
3.29064e-09
3.24999e-09
3.20877e-09
3.16709e-09
3.12507e-09
3.08284e-09
3.0405e-09
2.99814e-09
2.95586e-09
2.91374e-09
2.8719e-09
2.83038e-09
2.78919e-09
2.74852e-09
2.70834e-09
2.66865e-09
2.62956e-09
2.59105e-09
2.55312e-09
2.51578e-09
2.4791e-09
2.44284e-09
2.4072e-09
2.37165e-09
2.33542e-09
2.29886e-09
2.26194e-09
2.22455e-09
2.18663e-09
2.14817e-09
2.10916e-09
2.06962e-09
2.02953e-09
1.98889e-09
1.9477e-09
1.90597e-09
1.86369e-09
1.82086e-09
1.77748e-09
1.73355e-09
1.68907e-09
1.64355e-09
1.5973e-09
1.5505e-09
1.50318e-09
1.45533e-09
1.40696e-09
1.35807e-09
1.30869e-09
1.25884e-09
1.20852e-09
1.15778e-09
1.10662e-09
1.05509e-09
1.00322e-09
9.51048e-10
8.98616e-10
8.45982e-10
7.93203e-10
7.40352e-10
6.8751e-10
6.34772e-10
5.82251e-10
5.3008e-10
4.78416e-10
4.27447e-10
3.77413e-10
3.28591e-10
2.81372e-10
2.36132e-10
1.93601e-10
1.53989e-10
1.19225e-10
8.4496e-11
7.73276e-11
1.04342e-10
1.10202e-10
1.18804e-10
1.31987e-10
1.46992e-10
1.63591e-10
1.82727e-10
2.05405e-10
2.32605e-10
2.66556e-10
3.10338e-10
3.66723e-10
4.38961e-10
5.33491e-10
6.55329e-10
8.09549e-10
9.86967e-10
1.21199e-09
1.50454e-09
1.81793e-09
2.14211e-09
2.55614e-09
2.94504e-09
3.34341e-09
3.7612e-09
4.18724e-09
4.54238e-09
4.89352e-09
5.32809e-09
5.76599e-09
6.25384e-09
6.74122e-09
7.18053e-09
7.62555e-09
8.05612e-09
8.43643e-09
8.7728e-09
9.08036e-09
9.3662e-09
9.61818e-09
9.8232e-09
9.98934e-09
1.013e-08
1.02485e-08
1.03474e-08
1.0431e-08
1.05035e-08
1.05648e-08
1.06164e-08
1.06599e-08
1.06976e-08
1.07296e-08
1.07548e-08
1.07745e-08
1.07924e-08
1.08109e-08
1.08332e-08
1.08664e-08
1.09051e-08
1.09375e-08
1.09616e-08
1.09911e-08
1.10271e-08
1.10608e-08
1.10838e-08
1.11023e-08
1.11277e-08
1.11581e-08
1.11796e-08
1.11867e-08
1.11947e-08
1.12113e-08
1.1228e-08
1.12309e-08
1.12228e-08
1.12246e-08
1.12394e-08
1.12443e-08
1.12211e-08
1.11923e-08
1.1185e-08
1.1192e-08
1.118e-08
1.11399e-08
1.10959e-08
1.10522e-08
1.10046e-08
1.09539e-08
1.09024e-08
1.08473e-08
1.07853e-08
1.07106e-08
1.06207e-08
1.05289e-08
1.04478e-08
1.0363e-08
1.0245e-08
1.00983e-08
9.96157e-09
9.84062e-09
9.69345e-09
9.49619e-09
9.26407e-09
9.0172e-09
8.74993e-09
8.45074e-09
8.11751e-09
7.74779e-09
7.3426e-09
6.85964e-09
6.25553e-09
5.56245e-09
4.84053e-09
4.00003e-09
2.70905e-09
1.18599e-09
3.85785e-10
5.48127e-11
5.92813e-12
2.92947e-12
1.9037e-12
1.5132e-12
1.35827e-12
1.33791e-12
1.37718e-12
1.4699e-12
1.65344e-12
1.90762e-12
2.23909e-12
2.70108e-12
3.31807e-12
4.15417e-12
5.20578e-12
6.53844e-12
8.2256e-12
1.03465e-11
1.29785e-11
1.62056e-11
2.01189e-11
2.48157e-11
3.03962e-11
3.69664e-11
4.46236e-11
5.34749e-11
6.35515e-11
7.48528e-11
8.75383e-11
1.01766e-10
1.17418e-10
1.34439e-10
1.53007e-10
1.73193e-10
1.95032e-10
2.18453e-10
2.43224e-10
2.69446e-10
2.97236e-10
3.26689e-10
3.57855e-10
3.90483e-10
4.24518e-10
4.59728e-10
4.96356e-10
5.34991e-10
5.75044e-10
6.15856e-10
6.58191e-10
7.02502e-10
7.48902e-10
7.97673e-10
8.49814e-10
9.05525e-10
9.64767e-10
1.02918e-09
1.09964e-09
1.16349e-09
1.21889e-09
1.27163e-09
1.3202e-09
1.34786e-09
1.40304e-09
1.45861e-09
1.50671e-09
1.54967e-09
1.58976e-09
1.62691e-09
1.66171e-09
1.69406e-09
1.72416e-09
1.75197e-09
1.77755e-09
1.80091e-09
1.82209e-09
1.84115e-09
1.85817e-09
1.87321e-09
1.88636e-09
1.89769e-09
1.90725e-09
1.91511e-09
1.92131e-09
1.92592e-09
1.929e-09
1.93062e-09
1.93087e-09
1.92981e-09
1.92754e-09
1.92413e-09
1.91966e-09
1.91422e-09
1.90786e-09
1.90067e-09
1.8927e-09
1.88402e-09
1.87471e-09
1.86482e-09
1.85444e-09
1.84362e-09
1.83245e-09
1.82096e-09
1.80923e-09
1.7973e-09
1.78523e-09
1.77305e-09
1.76083e-09
1.74859e-09
1.7364e-09
1.72428e-09
1.71228e-09
1.70042e-09
1.68874e-09
1.67725e-09
1.66596e-09
1.65489e-09
1.64404e-09
1.63342e-09
1.62305e-09
1.61296e-09
1.60315e-09
1.59365e-09
1.58447e-09
1.57564e-09
1.56717e-09
1.55907e-09
1.55136e-09
1.54403e-09
1.53711e-09
1.53057e-09
1.52443e-09
1.51868e-09
1.51331e-09
1.50832e-09
1.50371e-09
1.49947e-09
1.49562e-09
1.49213e-09
1.48903e-09
1.4863e-09
1.48394e-09
1.48195e-09
1.48033e-09
1.47906e-09
1.47814e-09
1.47754e-09
1.47726e-09
1.47725e-09
1.47749e-09
1.47794e-09
1.47854e-09
1.47922e-09
1.47988e-09
1.48038e-09
1.48084e-09
1.48221e-09
1.48496e-09
1.48876e-09
1.49203e-09
1.49494e-09
1.48687e-09
1.48301e-09
1.39689e-09
1.27516e-09
2.55323e-06
1.10369e-06
8.84308e-07
8.65754e-07
8.35034e-07
8.10925e-07
7.95262e-07
7.85636e-07
7.79874e-07
7.76372e-07
7.7407e-07
7.72339e-07
7.70837e-07
7.69394e-07
7.67938e-07
7.66447e-07
7.64925e-07
7.63387e-07
7.61849e-07
7.6033e-07
7.58841e-07
7.57396e-07
7.56e-07
7.54661e-07
7.53382e-07
7.52165e-07
7.51009e-07
7.49915e-07
7.48881e-07
7.47905e-07
7.46986e-07
7.4612e-07
7.45306e-07
7.4454e-07
7.4382e-07
7.43143e-07
7.42507e-07
7.41909e-07
7.41347e-07
7.40818e-07
7.40321e-07
7.39853e-07
7.39413e-07
7.38998e-07
7.38607e-07
7.38239e-07
7.37892e-07
7.37563e-07
7.37254e-07
7.36961e-07
7.36683e-07
7.36421e-07
7.36172e-07
7.35936e-07
7.35712e-07
7.35499e-07
7.35296e-07
7.35103e-07
7.34919e-07
7.34743e-07
7.34575e-07
7.34414e-07
7.3426e-07
7.34112e-07
7.3397e-07
7.33833e-07
7.33701e-07
7.33573e-07
7.3345e-07
7.3333e-07
7.33215e-07
7.33102e-07
7.32992e-07
7.32886e-07
7.32781e-07
7.32679e-07
7.32579e-07
7.32481e-07
7.32385e-07
7.3229e-07
7.32197e-07
7.32104e-07
7.32014e-07
7.31924e-07
7.31834e-07
7.31746e-07
7.31659e-07
7.31572e-07
7.31485e-07
7.31399e-07
7.31313e-07
7.31227e-07
7.31141e-07
7.31056e-07
7.3097e-07
7.30884e-07
7.30798e-07
7.30712e-07
7.30625e-07
7.30538e-07
7.3045e-07
7.30362e-07
7.30273e-07
7.30183e-07
7.30093e-07
7.30002e-07
7.2991e-07
7.29817e-07
7.29723e-07
7.29629e-07
7.29533e-07
7.29436e-07
7.29338e-07
7.29238e-07
7.29138e-07
7.29036e-07
7.28932e-07
7.28828e-07
7.28721e-07
7.28613e-07
7.28504e-07
7.28392e-07
7.28279e-07
7.28165e-07
7.28048e-07
7.27929e-07
7.27809e-07
7.27686e-07
7.27561e-07
7.27434e-07
7.27305e-07
7.27174e-07
7.2704e-07
7.26904e-07
7.26765e-07
7.26624e-07
7.2648e-07
7.26334e-07
7.26184e-07
7.26032e-07
7.25877e-07
7.25719e-07
7.25558e-07
7.25393e-07
7.25225e-07
7.25054e-07
7.2488e-07
7.24702e-07
7.24521e-07
7.24336e-07
7.24147e-07
7.23955e-07
7.23758e-07
7.23558e-07
7.23354e-07
7.23146e-07
7.22933e-07
7.22716e-07
7.22495e-07
7.22269e-07
7.22038e-07
7.21802e-07
7.21562e-07
7.21317e-07
7.21066e-07
7.2081e-07
7.20549e-07
7.20283e-07
7.2001e-07
7.19732e-07
7.19448e-07
7.19158e-07
7.18862e-07
7.18559e-07
7.1825e-07
7.17934e-07
7.17611e-07
7.17281e-07
7.16944e-07
7.166e-07
7.16247e-07
7.15887e-07
7.15519e-07
7.15143e-07
7.14758e-07
7.14364e-07
7.13961e-07
7.13549e-07
7.13128e-07
7.12697e-07
7.12256e-07
7.11804e-07
7.11342e-07
7.10869e-07
7.10385e-07
7.0989e-07
7.09382e-07
7.08863e-07
7.0833e-07
7.07785e-07
7.07227e-07
7.06655e-07
7.0607e-07
7.05469e-07
7.04854e-07
7.04224e-07
7.03578e-07
7.02916e-07
7.02238e-07
7.01542e-07
7.00829e-07
7.00097e-07
6.99347e-07
6.98578e-07
6.97789e-07
6.9698e-07
6.9615e-07
6.95299e-07
6.94426e-07
6.9353e-07
6.9261e-07
6.91667e-07
6.90699e-07
6.89705e-07
6.88686e-07
6.87639e-07
6.86565e-07
6.85462e-07
6.84331e-07
6.83169e-07
6.81976e-07
6.80752e-07
6.79496e-07
6.78207e-07
6.7688e-07
6.75535e-07
6.74081e-07
6.72965e-07
6.70661e-07
6.67018e-07
6.63516e-07
6.59783e-07
6.55953e-07
6.52083e-07
6.48172e-07
6.4423e-07
6.40262e-07
6.36268e-07
6.32247e-07
6.28198e-07
6.24118e-07
6.20005e-07
6.15868e-07
6.11617e-07
6.07158e-07
6.02466e-07
5.97536e-07
5.92375e-07
5.86992e-07
5.81388e-07
5.75579e-07
5.69585e-07
5.63423e-07
5.57111e-07
5.50665e-07
5.44102e-07
5.37441e-07
5.30692e-07
5.23875e-07
5.17008e-07
5.10109e-07
5.03194e-07
4.9628e-07
4.89376e-07
4.82499e-07
4.75667e-07
4.68885e-07
4.62154e-07
4.55507e-07
4.48934e-07
4.42439e-07
4.36039e-07
4.2973e-07
4.23514e-07
4.17394e-07
4.11376e-07
4.05424e-07
3.99572e-07
3.93732e-07
3.87782e-07
3.81778e-07
3.7572e-07
3.6959e-07
3.63379e-07
3.57083e-07
3.50702e-07
3.44237e-07
3.37686e-07
3.31049e-07
3.24324e-07
3.17513e-07
3.10614e-07
3.03626e-07
2.96549e-07
2.89384e-07
2.82126e-07
2.74698e-07
2.6715e-07
2.59509e-07
2.51779e-07
2.43958e-07
2.36047e-07
2.28046e-07
2.19957e-07
2.11781e-07
2.03521e-07
1.9518e-07
1.8676e-07
1.78266e-07
1.69702e-07
1.61073e-07
1.52385e-07
1.43646e-07
1.34864e-07
1.2605e-07
1.17217e-07
1.08378e-07
9.95524e-08
9.07606e-08
8.20291e-08
7.33895e-08
6.48826e-08
5.65567e-08
4.84805e-08
4.07215e-08
3.3409e-08
2.65842e-08
2.05857e-08
1.45826e-08
1.33543e-08
1.80512e-08
1.90434e-08
2.05229e-08
2.27813e-08
2.53332e-08
2.81315e-08
3.13283e-08
3.50783e-08
3.95285e-08
4.50364e-08
5.20731e-08
6.1022e-08
7.23456e-08
8.70042e-08
1.05598e-07
1.28663e-07
1.54661e-07
1.87242e-07
2.28268e-07
2.70531e-07
3.15925e-07
3.76549e-07
4.30355e-07
4.84339e-07
5.41333e-07
5.98714e-07
6.45583e-07
6.94995e-07
7.54105e-07
8.06872e-07
8.63145e-07
9.20758e-07
9.76608e-07
1.03646e-06
1.09234e-06
1.1394e-06
1.18092e-06
1.22012e-06
1.25732e-06
1.28991e-06
1.31626e-06
1.33813e-06
1.35745e-06
1.37394e-06
1.38744e-06
1.39867e-06
1.40844e-06
1.41676e-06
1.42391e-06
1.43008e-06
1.43548e-06
1.44004e-06
1.44368e-06
1.44674e-06
1.44966e-06
1.45252e-06
1.45559e-06
1.45966e-06
1.46396e-06
1.46739e-06
1.47029e-06
1.47454e-06
1.47925e-06
1.4831e-06
1.48562e-06
1.4883e-06
1.49217e-06
1.49602e-06
1.4983e-06
1.4991e-06
1.50098e-06
1.50386e-06
1.50592e-06
1.50595e-06
1.50534e-06
1.50679e-06
1.50907e-06
1.5092e-06
1.50601e-06
1.50381e-06
1.50478e-06
1.50582e-06
1.50341e-06
1.49829e-06
1.4945e-06
1.49103e-06
1.48636e-06
1.48085e-06
1.47517e-06
1.46906e-06
1.46213e-06
1.45368e-06
1.44366e-06
1.43392e-06
1.42547e-06
1.41569e-06
1.40129e-06
1.38438e-06
1.37002e-06
1.35716e-06
1.33949e-06
1.31549e-06
1.28856e-06
1.2608e-06
1.23023e-06
1.19512e-06
1.15551e-06
1.11116e-06
1.0618e-06
1.00117e-06
9.23891e-07
8.35078e-07
7.4129e-07
6.25062e-07
4.3313e-07
1.97366e-07
6.64622e-08
9.51668e-09
1.03244e-09
5.06913e-10
3.29203e-10
2.61574e-10
2.34719e-10
2.31158e-10
2.37923e-10
2.53887e-10
2.85537e-10
3.29422e-10
3.86625e-10
4.66321e-10
5.72733e-10
7.16958e-10
8.98361e-10
1.12819e-09
1.41906e-09
1.78461e-09
2.23811e-09
2.79396e-09
3.46771e-09
4.27595e-09
5.23564e-09
6.36466e-09
7.67921e-09
9.19755e-09
1.09249e-08
1.28596e-08
1.50278e-08
1.74572e-08
2.0127e-08
2.30255e-08
2.61816e-08
2.96061e-08
3.33051e-08
3.72673e-08
4.14507e-08
4.58707e-08
5.05452e-08
5.54889e-08
6.07127e-08
6.61741e-08
7.1867e-08
7.77482e-08
8.38519e-08
9.02896e-08
9.69713e-08
1.03774e-07
1.10825e-07
1.18202e-07
1.25921e-07
1.34013e-07
1.42647e-07
1.51848e-07
1.61567e-07
1.72064e-07
1.83662e-07
1.94241e-07
2.03369e-07
2.12131e-07
2.20474e-07
2.2503e-07
2.34126e-07
2.43434e-07
2.51541e-07
2.58807e-07
2.65626e-07
2.71989e-07
2.77988e-07
2.83611e-07
2.88886e-07
2.93806e-07
2.9838e-07
3.02605e-07
3.06487e-07
3.10033e-07
3.13251e-07
3.16153e-07
3.18747e-07
3.21042e-07
3.23045e-07
3.24762e-07
3.262e-07
3.27366e-07
3.28267e-07
3.28913e-07
3.29315e-07
3.29482e-07
3.29427e-07
3.29162e-07
3.28698e-07
3.28046e-07
3.27218e-07
3.26223e-07
3.25072e-07
3.23776e-07
3.22346e-07
3.20793e-07
3.1913e-07
3.17368e-07
3.15519e-07
3.13593e-07
3.11602e-07
3.09553e-07
3.07458e-07
3.05325e-07
3.03164e-07
3.00982e-07
2.98789e-07
2.96591e-07
2.94397e-07
2.92214e-07
2.90047e-07
2.87899e-07
2.85775e-07
2.83677e-07
2.81609e-07
2.79571e-07
2.7757e-07
2.75608e-07
2.73691e-07
2.71821e-07
2.70004e-07
2.68241e-07
2.66538e-07
2.64896e-07
2.63319e-07
2.61807e-07
2.60362e-07
2.58984e-07
2.57673e-07
2.56429e-07
2.55252e-07
2.5414e-07
2.53094e-07
2.52114e-07
2.512e-07
2.50351e-07
2.49568e-07
2.4885e-07
2.48198e-07
2.4761e-07
2.47086e-07
2.46624e-07
2.46223e-07
2.45879e-07
2.4559e-07
2.45351e-07
2.45157e-07
2.45e-07
2.44874e-07
2.44764e-07
2.44659e-07
2.44533e-07
2.44407e-07
2.44437e-07
2.44693e-07
2.45131e-07
2.45486e-07
2.45825e-07
2.44344e-07
2.43717e-07
2.29172e-07
2.10249e-07
1.17353e-05
1.19604e-05
1.09868e-05
1.03175e-05
9.9643e-06
9.75535e-06
9.62836e-06
9.55527e-06
9.51589e-06
9.49526e-06
9.4836e-06
9.47531e-06
9.4675e-06
9.45895e-06
9.44927e-06
9.43851e-06
9.42691e-06
9.41474e-06
9.40228e-06
9.38977e-06
9.37738e-06
9.36527e-06
9.35353e-06
9.34225e-06
9.33146e-06
9.3212e-06
9.31146e-06
9.30226e-06
9.29359e-06
9.28542e-06
9.27774e-06
9.27053e-06
9.26376e-06
9.25741e-06
9.25146e-06
9.24588e-06
9.24065e-06
9.23575e-06
9.23115e-06
9.22684e-06
9.2228e-06
9.219e-06
9.21544e-06
9.21209e-06
9.20894e-06
9.20597e-06
9.20318e-06
9.20055e-06
9.19807e-06
9.19573e-06
9.19352e-06
9.19143e-06
9.18945e-06
9.18757e-06
9.18579e-06
9.1841e-06
9.18249e-06
9.18096e-06
9.17951e-06
9.17811e-06
9.17678e-06
9.17551e-06
9.17429e-06
9.17312e-06
9.17199e-06
9.17091e-06
9.16986e-06
9.16885e-06
9.16787e-06
9.16692e-06
9.166e-06
9.16511e-06
9.16423e-06
9.16338e-06
9.16255e-06
9.16173e-06
9.16093e-06
9.16015e-06
9.15937e-06
9.15861e-06
9.15786e-06
9.15711e-06
9.15638e-06
9.15565e-06
9.15493e-06
9.15421e-06
9.15349e-06
9.15278e-06
9.15208e-06
9.15137e-06
9.15066e-06
9.14996e-06
9.14926e-06
9.14855e-06
9.14784e-06
9.14713e-06
9.14642e-06
9.14571e-06
9.14499e-06
9.14427e-06
9.14354e-06
9.14281e-06
9.14207e-06
9.14133e-06
9.14058e-06
9.13982e-06
9.13905e-06
9.13828e-06
9.1375e-06
9.13671e-06
9.13591e-06
9.1351e-06
9.13429e-06
9.13346e-06
9.13262e-06
9.13177e-06
9.13091e-06
9.13003e-06
9.12914e-06
9.12824e-06
9.12733e-06
9.1264e-06
9.12546e-06
9.1245e-06
9.12353e-06
9.12254e-06
9.12153e-06
9.12051e-06
9.11947e-06
9.11841e-06
9.11733e-06
9.11623e-06
9.11512e-06
9.11398e-06
9.11283e-06
9.11165e-06
9.11046e-06
9.10923e-06
9.10799e-06
9.10672e-06
9.10543e-06
9.10412e-06
9.10278e-06
9.10141e-06
9.10001e-06
9.09859e-06
9.09714e-06
9.09567e-06
9.09416e-06
9.09263e-06
9.09106e-06
9.08947e-06
9.08784e-06
9.08618e-06
9.08449e-06
9.08276e-06
9.081e-06
9.07921e-06
9.07738e-06
9.07551e-06
9.07361e-06
9.07166e-06
9.06968e-06
9.06765e-06
9.06559e-06
9.06348e-06
9.06133e-06
9.05913e-06
9.05689e-06
9.0546e-06
9.05227e-06
9.04988e-06
9.04745e-06
9.04496e-06
9.04243e-06
9.03983e-06
9.03719e-06
9.03448e-06
9.03172e-06
9.0289e-06
9.02601e-06
9.02306e-06
9.02005e-06
9.01697e-06
9.01383e-06
9.01061e-06
9.00732e-06
9.00395e-06
9.00051e-06
8.99699e-06
8.99339e-06
8.98971e-06
8.98594e-06
8.98209e-06
8.97814e-06
8.9741e-06
8.96997e-06
8.96573e-06
8.9614e-06
8.95696e-06
8.95242e-06
8.94776e-06
8.94299e-06
8.93811e-06
8.9331e-06
8.92797e-06
8.92272e-06
8.91733e-06
8.91181e-06
8.90614e-06
8.90034e-06
8.89439e-06
8.88828e-06
8.88202e-06
8.8756e-06
8.86901e-06
8.86226e-06
8.85532e-06
8.84821e-06
8.84091e-06
8.83341e-06
8.82572e-06
8.81782e-06
8.80972e-06
8.8014e-06
8.79285e-06
8.78408e-06
8.77507e-06
8.76581e-06
8.75631e-06
8.74655e-06
8.73652e-06
8.72622e-06
8.71564e-06
8.70478e-06
8.69369e-06
8.68173e-06
8.67297e-06
8.65012e-06
8.60881e-06
8.56611e-06
8.52153e-06
8.47574e-06
8.42941e-06
8.38271e-06
8.33574e-06
8.28856e-06
8.24116e-06
8.19354e-06
8.14566e-06
8.09753e-06
8.04911e-06
8.00048e-06
7.95083e-06
7.8993e-06
7.84564e-06
7.7898e-06
7.7318e-06
7.67173e-06
7.60954e-06
7.54539e-06
7.47945e-06
7.41185e-06
7.34274e-06
7.27227e-06
7.20059e-06
7.12784e-06
7.05412e-06
6.9796e-06
6.90445e-06
6.82884e-06
6.75292e-06
6.67683e-06
6.60068e-06
6.52462e-06
6.44885e-06
6.37339e-06
6.29828e-06
6.22385e-06
6.15e-06
6.0768e-06
6.00441e-06
5.9328e-06
5.86201e-06
5.79208e-06
5.72308e-06
5.65465e-06
5.58714e-06
5.51951e-06
5.45002e-06
5.37969e-06
5.30864e-06
5.23666e-06
5.16364e-06
5.08953e-06
5.01431e-06
4.93794e-06
4.86042e-06
4.7817e-06
4.70176e-06
4.62057e-06
4.5381e-06
4.45431e-06
4.36916e-06
4.28262e-06
4.19462e-06
4.10407e-06
4.01158e-06
3.91748e-06
3.82176e-06
3.72434e-06
3.62515e-06
3.52415e-06
3.42129e-06
3.31651e-06
3.20977e-06
3.10102e-06
2.9902e-06
2.87727e-06
2.76217e-06
2.64485e-06
2.52529e-06
2.40343e-06
2.27926e-06
2.15276e-06
2.02394e-06
1.89283e-06
1.7595e-06
1.62407e-06
1.48676e-06
1.34784e-06
1.20782e-06
1.06732e-06
9.27466e-07
7.89429e-07
6.55803e-07
5.2765e-07
4.12341e-07
2.9412e-07
2.7012e-07
3.65221e-07
3.83584e-07
4.1166e-07
4.54127e-07
5.0026e-07
5.48586e-07
6.01303e-07
6.60233e-07
7.26909e-07
8.06475e-07
9.04628e-07
1.02394e-06
1.16822e-06
1.34799e-06
1.56437e-06
1.81611e-06
2.0772e-06
2.3905e-06
2.75612e-06
3.09787e-06
3.48882e-06
4.02888e-06
4.50157e-06
4.94341e-06
5.39774e-06
5.84362e-06
6.20934e-06
6.60249e-06
7.04743e-06
7.3906e-06
7.69695e-06
8.01503e-06
8.33362e-06
8.74169e-06
9.1429e-06
9.4594e-06
9.72254e-06
9.98239e-06
1.02451e-05
1.04811e-05
1.0671e-05
1.08348e-05
1.09852e-05
1.11179e-05
1.1229e-05
1.13215e-05
1.14014e-05
1.14707e-05
1.15319e-05
1.15863e-05
1.16349e-05
1.16771e-05
1.17128e-05
1.17445e-05
1.1775e-05
1.18036e-05
1.18308e-05
1.18594e-05
1.18843e-05
1.19018e-05
1.19198e-05
1.19491e-05
1.19821e-05
1.20065e-05
1.20227e-05
1.20428e-05
1.20724e-05
1.21003e-05
1.21154e-05
1.21238e-05
1.21425e-05
1.21688e-05
1.21867e-05
1.21902e-05
1.21931e-05
1.22112e-05
1.22332e-05
1.22364e-05
1.22222e-05
1.22209e-05
1.22422e-05
1.22582e-05
1.22448e-05
1.22188e-05
1.22099e-05
1.221e-05
1.22026e-05
1.21862e-05
1.21658e-05
1.21422e-05
1.21141e-05
1.20786e-05
1.2037e-05
1.20003e-05
1.1971e-05
1.19301e-05
1.186e-05
1.17805e-05
1.17241e-05
1.16776e-05
1.15967e-05
1.14761e-05
1.13465e-05
1.12238e-05
1.10904e-05
1.09291e-05
1.0738e-05
1.05169e-05
1.02616e-05
9.92739e-06
9.4765e-06
8.94855e-06
8.3736e-06
7.55014e-06
5.84054e-06
3.25354e-06
1.30078e-06
1.93995e-07
2.10408e-08
1.03033e-08
6.68877e-09
5.31368e-09
4.76602e-09
4.69289e-09
4.83028e-09
5.1515e-09
5.79072e-09
6.67899e-09
7.83672e-09
9.44806e-09
1.15965e-08
1.45064e-08
1.81633e-08
2.27899e-08
2.86345e-08
3.59641e-08
4.50345e-08
5.61197e-08
6.95118e-08
8.55151e-08
1.04432e-07
1.2657e-07
1.52193e-07
1.81603e-07
2.14846e-07
2.51801e-07
2.92863e-07
3.38494e-07
3.88227e-07
4.41719e-07
4.99384e-07
5.61321e-07
6.27561e-07
6.97862e-07
7.71388e-07
8.48301e-07
9.28832e-07
1.01319e-06
1.10157e-06
1.1933e-06
1.2883e-06
1.3858e-06
1.48637e-06
1.59207e-06
1.70155e-06
1.8127e-06
1.92745e-06
2.047e-06
2.17132e-06
2.30062e-06
2.43722e-06
2.58098e-06
2.73068e-06
2.89152e-06
3.06965e-06
3.23335e-06
3.37649e-06
3.51788e-06
3.65324e-06
3.72922e-06
3.87239e-06
4.02208e-06
4.15437e-06
4.27613e-06
4.39219e-06
4.50278e-06
4.60902e-06
4.71078e-06
4.80841e-06
4.90173e-06
4.99081e-06
5.0755e-06
5.1558e-06
5.23168e-06
5.30317e-06
5.37028e-06
5.43302e-06
5.4914e-06
5.54536e-06
5.59488e-06
5.6399e-06
5.68039e-06
5.71632e-06
5.74769e-06
5.77455e-06
5.79692e-06
5.81487e-06
5.82847e-06
5.83781e-06
5.84295e-06
5.844e-06
5.84104e-06
5.83419e-06
5.82354e-06
5.80926e-06
5.79149e-06
5.77041e-06
5.74619e-06
5.71905e-06
5.68914e-06
5.65668e-06
5.62183e-06
5.58483e-06
5.54583e-06
5.50505e-06
5.46266e-06
5.4189e-06
5.37392e-06
5.32793e-06
5.28112e-06
5.23364e-06
5.18562e-06
5.1372e-06
5.08849e-06
5.0396e-06
4.99065e-06
4.94179e-06
4.89313e-06
4.8448e-06
4.79694e-06
4.74966e-06
4.70306e-06
4.65727e-06
4.61236e-06
4.56842e-06
4.5255e-06
4.48367e-06
4.44295e-06
4.40338e-06
4.36498e-06
4.32776e-06
4.29173e-06
4.25692e-06
4.22332e-06
4.19097e-06
4.15987e-06
4.13002e-06
4.10142e-06
4.07409e-06
4.04801e-06
4.02317e-06
3.99954e-06
3.97711e-06
3.95583e-06
3.93566e-06
3.91652e-06
3.89837e-06
3.8811e-06
3.86459e-06
3.84871e-06
3.83326e-06
3.81797e-06
3.80309e-06
3.7908e-06
3.78188e-06
3.77613e-06
3.76946e-06
3.76485e-06
3.73467e-06
3.72815e-06
3.51687e-06
3.32091e-06
3.11648e-05
3.1444e-05
3.01051e-05
2.85702e-05
2.76546e-05
2.70431e-05
2.6682e-05
2.64954e-05
2.64154e-05
2.63925e-05
2.63952e-05
2.64051e-05
2.6413e-05
2.64151e-05
2.64107e-05
2.64003e-05
2.63851e-05
2.63664e-05
2.63452e-05
2.63227e-05
2.62996e-05
2.62764e-05
2.62537e-05
2.62317e-05
2.62106e-05
2.61906e-05
2.61717e-05
2.61539e-05
2.61374e-05
2.61219e-05
2.61075e-05
2.60942e-05
2.60818e-05
2.60703e-05
2.60597e-05
2.60499e-05
2.60408e-05
2.60324e-05
2.60246e-05
2.60174e-05
2.60107e-05
2.60046e-05
2.59988e-05
2.59935e-05
2.59886e-05
2.5984e-05
2.59797e-05
2.59757e-05
2.5972e-05
2.59685e-05
2.59652e-05
2.59622e-05
2.59593e-05
2.59566e-05
2.5954e-05
2.59517e-05
2.59494e-05
2.59472e-05
2.59452e-05
2.59433e-05
2.59414e-05
2.59396e-05
2.59379e-05
2.59363e-05
2.59348e-05
2.59332e-05
2.59318e-05
2.59304e-05
2.5929e-05
2.59277e-05
2.59264e-05
2.59251e-05
2.59239e-05
2.59226e-05
2.59214e-05
2.59203e-05
2.59191e-05
2.59179e-05
2.59168e-05
2.59157e-05
2.59145e-05
2.59134e-05
2.59123e-05
2.59112e-05
2.591e-05
2.59089e-05
2.59078e-05
2.59066e-05
2.59055e-05
2.59044e-05
2.59032e-05
2.59021e-05
2.59009e-05
2.58997e-05
2.58986e-05
2.58974e-05
2.58962e-05
2.5895e-05
2.58938e-05
2.58925e-05
2.58913e-05
2.589e-05
2.58888e-05
2.58875e-05
2.58862e-05
2.58849e-05
2.58836e-05
2.58822e-05
2.58809e-05
2.58795e-05
2.58781e-05
2.58767e-05
2.58752e-05
2.58738e-05
2.58723e-05
2.58708e-05
2.58693e-05
2.58678e-05
2.58662e-05
2.58647e-05
2.5863e-05
2.58614e-05
2.58598e-05
2.58581e-05
2.58564e-05
2.58546e-05
2.58529e-05
2.58511e-05
2.58492e-05
2.58474e-05
2.58455e-05
2.58436e-05
2.58416e-05
2.58396e-05
2.58376e-05
2.58356e-05
2.58335e-05
2.58313e-05
2.58292e-05
2.5827e-05
2.58247e-05
2.58224e-05
2.58201e-05
2.58177e-05
2.58153e-05
2.58129e-05
2.58104e-05
2.58078e-05
2.58052e-05
2.58026e-05
2.57999e-05
2.57972e-05
2.57944e-05
2.57915e-05
2.57887e-05
2.57857e-05
2.57827e-05
2.57797e-05
2.57766e-05
2.57734e-05
2.57702e-05
2.57669e-05
2.57636e-05
2.57602e-05
2.57568e-05
2.57532e-05
2.57497e-05
2.5746e-05
2.57423e-05
2.57385e-05
2.57346e-05
2.57307e-05
2.57267e-05
2.57226e-05
2.57184e-05
2.57142e-05
2.57099e-05
2.57055e-05
2.5701e-05
2.56964e-05
2.56918e-05
2.5687e-05
2.56821e-05
2.56772e-05
2.56722e-05
2.5667e-05
2.56618e-05
2.56564e-05
2.56509e-05
2.56453e-05
2.56396e-05
2.56338e-05
2.56279e-05
2.56218e-05
2.56156e-05
2.56093e-05
2.56028e-05
2.55962e-05
2.55895e-05
2.55826e-05
2.55755e-05
2.55683e-05
2.55609e-05
2.55534e-05
2.55457e-05
2.55378e-05
2.55297e-05
2.55215e-05
2.5513e-05
2.55044e-05
2.54955e-05
2.54865e-05
2.54772e-05
2.54677e-05
2.5458e-05
2.5448e-05
2.54378e-05
2.54274e-05
2.54166e-05
2.54057e-05
2.53944e-05
2.53829e-05
2.53711e-05
2.5359e-05
2.53465e-05
2.53338e-05
2.53207e-05
2.53073e-05
2.52936e-05
2.52795e-05
2.5265e-05
2.52502e-05
2.52349e-05
2.52193e-05
2.52032e-05
2.51871e-05
2.51686e-05
2.5158e-05
2.51156e-05
2.50197e-05
2.49173e-05
2.48178e-05
2.47144e-05
2.46083e-05
2.45011e-05
2.43935e-05
2.42854e-05
2.41771e-05
2.40685e-05
2.39596e-05
2.38503e-05
2.37406e-05
2.36307e-05
2.3519e-05
2.34036e-05
2.32843e-05
2.3161e-05
2.30338e-05
2.29027e-05
2.27676e-05
2.26288e-05
2.24866e-05
2.23412e-05
2.2193e-05
2.20423e-05
2.18893e-05
2.17342e-05
2.15774e-05
2.1419e-05
2.12595e-05
2.10991e-05
2.09382e-05
2.07771e-05
2.06159e-05
2.04549e-05
2.02947e-05
2.01352e-05
1.99764e-05
1.98193e-05
1.96634e-05
1.9509e-05
1.93564e-05
1.92057e-05
1.90568e-05
1.89099e-05
1.87653e-05
1.86221e-05
1.84811e-05
1.83354e-05
1.817e-05
1.8002e-05
1.78318e-05
1.76593e-05
1.74841e-05
1.73062e-05
1.71255e-05
1.69419e-05
1.67552e-05
1.65654e-05
1.63723e-05
1.61759e-05
1.5976e-05
1.57724e-05
1.5565e-05
1.53536e-05
1.51379e-05
1.49138e-05
1.46837e-05
1.44483e-05
1.42076e-05
1.39612e-05
1.37088e-05
1.345e-05
1.31844e-05
1.29116e-05
1.26311e-05
1.23426e-05
1.20453e-05
1.17387e-05
1.14221e-05
1.10948e-05
1.07558e-05
1.04043e-05
1.00392e-05
9.65934e-06
9.26332e-06
8.8497e-06
8.41681e-06
7.96283e-06
7.48581e-06
6.98365e-06
6.45447e-06
5.89645e-06
5.30944e-06
4.69312e-06
4.05529e-06
3.39605e-06
2.75817e-06
2.04256e-06
1.90841e-06
2.54156e-06
2.65141e-06
2.80851e-06
3.04383e-06
3.27693e-06
3.49498e-06
3.7073e-06
3.91918e-06
4.1341e-06
4.37459e-06
4.66002e-06
4.98751e-06
5.36058e-06
5.81193e-06
6.3265e-06
6.87827e-06
7.21871e-06
7.66833e-06
8.21884e-06
8.60463e-06
9.05928e-06
1.00065e-05
1.10059e-05
1.18642e-05
1.27043e-05
1.35644e-05
1.42694e-05
1.50074e-05
1.59626e-05
1.67429e-05
1.72275e-05
1.75846e-05
1.80459e-05
1.87535e-05
1.95562e-05
2.02461e-05
2.08089e-05
2.1338e-05
2.18797e-05
2.24025e-05
2.28636e-05
2.32688e-05
2.36533e-05
2.40174e-05
2.43438e-05
2.46219e-05
2.48608e-05
2.50699e-05
2.52567e-05
2.54261e-05
2.55817e-05
2.57218e-05
2.58435e-05
2.59523e-05
2.60574e-05
2.61596e-05
2.62561e-05
2.63494e-05
2.64249e-05
2.64664e-05
2.64951e-05
2.65548e-05
2.66431e-05
2.67158e-05
2.67542e-05
2.67929e-05
2.68658e-05
2.69523e-05
2.70039e-05
2.70221e-05
2.70619e-05
2.71417e-05
2.72152e-05
2.72418e-05
2.72489e-05
2.72978e-05
2.73828e-05
2.74247e-05
2.73986e-05
2.73897e-05
2.74651e-05
2.75637e-05
2.75748e-05
2.75129e-05
2.74887e-05
2.75285e-05
2.75787e-05
2.76041e-05
2.7609e-05
2.76014e-05
2.75832e-05
2.75501e-05
2.75051e-05
2.74774e-05
2.74838e-05
2.74769e-05
2.73924e-05
2.72654e-05
2.72059e-05
2.72178e-05
2.71708e-05
2.7005e-05
2.68078e-05
2.66698e-05
2.65687e-05
2.6441e-05
2.62674e-05
2.60537e-05
2.58044e-05
2.54255e-05
2.48208e-05
2.41384e-05
2.34771e-05
2.22996e-05
1.90366e-05
1.33402e-05
7.58658e-06
1.43041e-06
1.53214e-07
7.53933e-08
4.92008e-08
3.91689e-08
3.5157e-08
3.46354e-08
3.56656e-08
3.80118e-08
4.26819e-08
4.91924e-08
5.76688e-08
6.94273e-08
8.50296e-08
1.06091e-07
1.3245e-07
1.65616e-07
2.07225e-07
2.58989e-07
3.22465e-07
3.99235e-07
4.90894e-07
5.9897e-07
7.248e-07
8.69587e-07
1.03412e-06
1.21944e-06
1.42486e-06
1.64826e-06
1.89092e-06
2.15487e-06
2.43628e-06
2.73188e-06
3.04303e-06
3.36969e-06
3.71178e-06
4.06768e-06
4.43243e-06
4.80637e-06
5.19057e-06
5.58643e-06
5.99556e-06
6.41539e-06
6.84549e-06
7.28216e-06
7.72946e-06
8.19803e-06
8.68101e-06
9.16824e-06
9.66778e-06
1.01838e-05
1.0714e-05
1.12583e-05
1.1825e-05
1.24108e-05
1.30145e-05
1.367e-05
1.43997e-05
1.50743e-05
1.56806e-05
1.62991e-05
1.68674e-05
1.72026e-05
1.7814e-05
1.8456e-05
1.9033e-05
1.95763e-05
2.01011e-05
2.06094e-05
2.11045e-05
2.15861e-05
2.2055e-05
2.25105e-05
2.29523e-05
2.33797e-05
2.3792e-05
2.41889e-05
2.45699e-05
2.49347e-05
2.52829e-05
2.5614e-05
2.59274e-05
2.62225e-05
2.64987e-05
2.67553e-05
2.69918e-05
2.72078e-05
2.7403e-05
2.7577e-05
2.77297e-05
2.7861e-05
2.79708e-05
2.80591e-05
2.81259e-05
2.81713e-05
2.81955e-05
2.81986e-05
2.81811e-05
2.81432e-05
2.80857e-05
2.8009e-05
2.79139e-05
2.7801e-05
2.76712e-05
2.7525e-05
2.73635e-05
2.71874e-05
2.69977e-05
2.67952e-05
2.65809e-05
2.63557e-05
2.61206e-05
2.58767e-05
2.56247e-05
2.53655e-05
2.50998e-05
2.48285e-05
2.45522e-05
2.42719e-05
2.39882e-05
2.37021e-05
2.34144e-05
2.31259e-05
2.28374e-05
2.25496e-05
2.22632e-05
2.19788e-05
2.16971e-05
2.14185e-05
2.11435e-05
2.08725e-05
2.06058e-05
2.03437e-05
2.00865e-05
1.98343e-05
1.95875e-05
1.93462e-05
1.91107e-05
1.8881e-05
1.86573e-05
1.84398e-05
1.82286e-05