/*--------------------------------*- C++ -*----------------------------------*\
  =========                 |
  \\      /  F ield         | OpenFOAM: The Open Source CFD Toolbox
   \\    /   O peration     | Website:  https://openfoam.org
    \\  /    A nd           | Version:  7
     \\/     M anipulation  |
\*---------------------------------------------------------------------------*/
FoamFile
{
    version     2.0;
    format      ascii;
    class       volScalarField;
    location    "2000";
    object      omega;
}
// * * * * * * * * * * * * * * * * * * * * * * * * * * * * * * * * * * * * * //

dimensions      [0 0 -1 0 0 0 0];

internalField   nonuniform List<scalar> 
51626
(
2.62767e+06
2.62767e+06
2.62767e+06
2.62767e+06
2.62767e+06
2.62767e+06
2.62767e+06
2.62767e+06
2.62767e+06
2.62767e+06
2.62767e+06
2.62767e+06
2.62767e+06
2.62767e+06
2.62767e+06
2.62767e+06
2.62767e+06
2.62767e+06
2.62767e+06
2.62767e+06
2.62767e+06
2.62767e+06
2.62767e+06
2.62767e+06
2.62767e+06
2.62767e+06
2.62767e+06
2.62767e+06
2.62767e+06
2.62767e+06
2.62767e+06
2.62767e+06
2.62767e+06
2.62767e+06
2.62767e+06
2.62767e+06
2.62767e+06
2.62767e+06
2.62767e+06
2.62767e+06
2.62767e+06
2.62767e+06
2.62767e+06
2.62767e+06
2.62767e+06
2.62767e+06
2.62767e+06
2.62767e+06
2.62767e+06
2.62767e+06
2.62767e+06
2.62767e+06
2.62767e+06
2.62767e+06
2.62767e+06
2.62767e+06
2.62767e+06
2.62767e+06
2.62767e+06
2.62767e+06
2.62767e+06
2.62767e+06
2.62767e+06
2.62767e+06
2.62767e+06
2.62767e+06
2.62767e+06
2.62767e+06
2.62767e+06
2.62767e+06
2.62767e+06
2.62767e+06
2.62767e+06
2.62767e+06
2.62767e+06
2.62767e+06
2.62767e+06
2.62767e+06
2.62767e+06
2.62767e+06
2.62767e+06
2.62767e+06
2.62767e+06
2.62767e+06
2.62767e+06
2.62767e+06
2.62767e+06
2.62767e+06
2.62767e+06
2.62767e+06
2.62767e+06
2.62767e+06
2.62767e+06
2.62767e+06
2.62767e+06
2.62767e+06
2.62767e+06
2.62767e+06
2.62767e+06
2.62767e+06
2.62767e+06
2.62767e+06
2.62767e+06
2.62767e+06
2.62767e+06
2.62767e+06
2.62767e+06
2.62767e+06
2.62767e+06
2.62767e+06
2.62767e+06
2.62767e+06
2.62767e+06
2.62767e+06
2.62767e+06
2.62767e+06
2.62767e+06
2.62767e+06
2.62767e+06
2.62767e+06
2.62767e+06
2.62767e+06
2.62767e+06
2.62767e+06
2.62767e+06
2.62767e+06
2.62767e+06
2.62767e+06
2.62767e+06
2.62767e+06
2.62767e+06
2.62767e+06
2.62767e+06
2.62767e+06
2.62767e+06
2.62767e+06
2.62767e+06
2.62767e+06
2.62767e+06
2.62767e+06
2.62767e+06
2.62767e+06
2.62767e+06
2.62767e+06
2.62767e+06
2.62767e+06
2.62767e+06
2.62767e+06
2.62767e+06
2.62767e+06
2.62767e+06
2.62767e+06
2.62767e+06
2.62767e+06
2.62767e+06
2.62767e+06
2.62767e+06
2.62767e+06
2.62767e+06
2.62767e+06
2.62767e+06
2.62767e+06
2.62767e+06
2.62767e+06
2.62767e+06
2.62767e+06
2.62767e+06
2.62767e+06
2.62767e+06
2.62767e+06
2.62767e+06
2.62767e+06
2.62767e+06
2.62767e+06
2.62767e+06
2.62767e+06
2.62767e+06
2.62767e+06
2.62767e+06
2.62767e+06
2.62767e+06
2.62767e+06
2.62767e+06
2.62767e+06
2.62767e+06
2.62767e+06
2.62767e+06
2.62767e+06
2.62767e+06
2.62767e+06
2.62767e+06
2.62767e+06
2.62767e+06
2.62767e+06
2.62767e+06
2.62767e+06
2.62767e+06
2.62767e+06
2.62767e+06
2.62767e+06
2.62767e+06
2.62767e+06
2.62767e+06
2.62767e+06
2.62767e+06
2.62767e+06
2.62767e+06
2.62767e+06
2.62767e+06
2.62767e+06
2.62767e+06
2.62767e+06
2.62767e+06
2.62767e+06
2.62767e+06
2.62767e+06
2.62767e+06
2.62767e+06
2.62767e+06
2.62767e+06
2.62767e+06
2.62767e+06
2.62767e+06
2.62767e+06
2.62767e+06
2.62767e+06
2.62767e+06
2.62767e+06
2.62767e+06
2.62767e+06
2.62767e+06
2.62767e+06
2.62767e+06
2.62767e+06
2.62767e+06
2.62767e+06
2.62767e+06
2.62767e+06
2.62836e+06
2.63041e+06
2.63316e+06
2.63591e+06
2.63866e+06
2.64142e+06
2.64418e+06
2.64695e+06
2.64973e+06
2.65251e+06
2.65529e+06
2.65808e+06
2.66087e+06
2.66367e+06
2.66648e+06
2.6694e+06
2.67263e+06
2.67627e+06
2.6803e+06
2.68473e+06
2.68955e+06
2.69475e+06
2.70032e+06
2.70623e+06
2.71247e+06
2.71902e+06
2.72583e+06
2.7329e+06
2.74019e+06
2.74768e+06
2.75535e+06
2.76315e+06
2.77104e+06
2.77899e+06
2.78697e+06
2.79494e+06
2.80287e+06
2.81071e+06
2.81843e+06
2.82601e+06
2.83339e+06
2.84053e+06
2.84744e+06
2.85407e+06
2.86037e+06
2.86634e+06
2.87195e+06
2.87717e+06
2.882e+06
2.88641e+06
2.8904e+06
2.89397e+06
2.89722e+06
2.90037e+06
2.90351e+06
2.90666e+06
2.90982e+06
2.91298e+06
2.91615e+06
2.91932e+06
2.9225e+06
2.92568e+06
2.92887e+06
2.93207e+06
2.93527e+06
2.93848e+06
2.94169e+06
2.94491e+06
2.94813e+06
2.95136e+06
2.9546e+06
2.95784e+06
2.96109e+06
2.96434e+06
2.9676e+06
2.97087e+06
2.97414e+06
2.97742e+06
2.9807e+06
2.98399e+06
2.98729e+06
2.99059e+06
2.9939e+06
2.99721e+06
3.00053e+06
3.00386e+06
3.00719e+06
3.01053e+06
3.01387e+06
3.01722e+06
3.02058e+06
3.02394e+06
3.02731e+06
3.03068e+06
3.03406e+06
3.03745e+06
3.04084e+06
3.04424e+06
3.04764e+06
3.05105e+06
3.05447e+06
3.06129e+06
3.11384e+06
3.17883e+06
3.2715e+06
3.39285e+06
3.53367e+06
3.68758e+06
3.84946e+06
4.01028e+06
4.16043e+06
4.29923e+06
4.42372e+06
4.522e+06
4.58941e+06
4.63628e+06
4.66273e+06
4.65901e+06
4.63132e+06
4.60253e+06
4.55434e+06
4.44273e+06
4.33367e+06
4.29596e+06
4.26329e+06
4.22879e+06
4.20067e+06
4.1805e+06
4.15474e+06
4.14144e+06
4.15444e+06
4.16052e+06
4.15055e+06
4.12671e+06
4.10347e+06
4.08954e+06
4.08155e+06
4.07306e+06
4.06358e+06
4.05557e+06
4.04996e+06
4.04586e+06
4.04241e+06
4.03966e+06
4.03826e+06
4.03827e+06
4.03915e+06
4.04053e+06
4.04234e+06
4.04448e+06
4.04693e+06
4.0497e+06
4.05276e+06
4.05602e+06
4.05938e+06
4.06288e+06
4.06662e+06
4.07061e+06
4.07478e+06
4.07911e+06
4.08327e+06
4.08694e+06
4.09032e+06
4.0939e+06
4.09767e+06
4.10119e+06
4.10429e+06
4.10729e+06
4.1105e+06
4.11374e+06
4.11659e+06
4.11908e+06
4.12161e+06
4.12432e+06
4.1269e+06
4.12909e+06
4.13106e+06
4.13315e+06
4.13534e+06
4.13718e+06
4.13855e+06
4.13987e+06
4.14142e+06
4.14297e+06
4.14409e+06
4.14484e+06
4.14555e+06
4.14625e+06
4.14688e+06
4.14739e+06
4.14776e+06
4.148e+06
4.14813e+06
4.14816e+06
4.14807e+06
4.14789e+06
4.14758e+06
4.14719e+06
4.14687e+06
4.1466e+06
4.14617e+06
4.14553e+06
4.14506e+06
4.14508e+06
4.14544e+06
4.14586e+06
4.14639e+06
4.14726e+06
4.14858e+06
4.15051e+06
4.15321e+06
4.15781e+06
4.16594e+06
4.17738e+06
4.18947e+06
4.20476e+06
4.25439e+06
4.38796e+06
4.58142e+06
4.98858e+06
5.4909e+06
5.90477e+06
6.22826e+06
6.43586e+06
6.51376e+06
6.51709e+06
6.41718e+06
6.25344e+06
6.15122e+06
6.05364e+06
5.89723e+06
5.69262e+06
5.49134e+06
5.31483e+06
5.14514e+06
4.969e+06
4.79348e+06
4.62644e+06
4.46896e+06
4.32178e+06
4.18488e+06
4.0583e+06
3.94259e+06
3.83882e+06
3.74723e+06
3.66828e+06
3.59886e+06
3.53616e+06
3.4815e+06
3.43536e+06
3.39489e+06
3.35861e+06
3.3268e+06
3.29928e+06
3.27581e+06
3.25548e+06
3.23705e+06
3.22025e+06
3.205e+06
3.19134e+06
3.1792e+06
3.16808e+06
3.15762e+06
3.14729e+06
3.13712e+06
3.12741e+06
3.11779e+06
3.10793e+06
3.09824e+06
3.0891e+06
3.0808e+06
3.0737e+06
3.06821e+06
3.06438e+06
3.06205e+06
3.06099e+06
3.06056e+06
3.06021e+06
3.05984e+06
3.05958e+06
3.05914e+06
3.0584e+06
3.05832e+06
3.05832e+06
3.05832e+06
3.05832e+06
3.05832e+06
3.05832e+06
3.05832e+06
3.05832e+06
3.05832e+06
3.05832e+06
3.05832e+06
3.05832e+06
3.05832e+06
3.05832e+06
3.05832e+06
3.05832e+06
3.05832e+06
3.05832e+06
3.05832e+06
3.05832e+06
3.05832e+06
3.05832e+06
3.05832e+06
3.05832e+06
3.05832e+06
3.05832e+06
3.05832e+06
3.05832e+06
3.05832e+06
3.05832e+06
3.05832e+06
3.05832e+06
3.05832e+06
3.05832e+06
3.05832e+06
3.05832e+06
3.05832e+06
3.05832e+06
3.05832e+06
3.05832e+06
3.05832e+06
3.05832e+06
3.05832e+06
3.05832e+06
3.05832e+06
3.05832e+06
3.05832e+06
3.05832e+06
3.05832e+06
3.05832e+06
3.05832e+06
3.05832e+06
3.05832e+06
3.05832e+06
3.05832e+06
3.05832e+06
3.05832e+06
3.05832e+06
3.05832e+06
3.05832e+06
3.05832e+06
3.05832e+06
3.05832e+06
3.05832e+06
3.05832e+06
3.05832e+06
3.05832e+06
3.05832e+06
3.05832e+06
3.05832e+06
3.05832e+06
3.05832e+06
3.05832e+06
3.05832e+06
3.05832e+06
3.05832e+06
3.05832e+06
3.05832e+06
3.05832e+06
3.05832e+06
3.05832e+06
3.05832e+06
3.05832e+06
3.05832e+06
3.05832e+06
3.05832e+06
3.05832e+06
3.05832e+06
3.05832e+06
3.05832e+06
3.05832e+06
3.05832e+06
3.05808e+06
3.05676e+06
3.05356e+06
3.04834e+06
3.0412e+06
3.03242e+06
3.02241e+06
3.0115e+06
3.00006e+06
2.98848e+06
672998
491460
489444
489373
488004
486746
485773
485052
484531
484156
483886
483686
483533
483409
483304
483212
483128
483049
482975
482904
482836
482770
482707
482647
482589
482533
482480
482430
482382
482336
482292
482251
482211
482174
482139
482105
482074
482044
482015
481989
481963
481939
481916
481895
481874
481855
481837
481819
481803
481787
481772
481758
481745
481732
481720
481709
481698
481687
481677
481668
481659
481650
481641
481633
481626
481618
481611
481604
481598
481591
481585
481579
481573
481567
481562
481556
481551
481546
481541
481536
481531
481526
481521
481517
481512
481508
481503
481499
481495
481490
481486
481482
481477
481473
481469
481465
481460
481456
481452
481448
481443
481439
481435
481430
481426
481421
481417
481412
481408
481403
481399
481394
481389
481384
481380
481375
481370
481364
481359
481354
481349
481343
481338
481332
481327
481321
481315
481309
481303
481297
481290
481284
481278
481271
481264
481257
481250
481243
481236
481228
481220
481213
481205
481197
481188
481180
481171
481162
481153
481144
481135
481125
481115
481105
481095
481084
481074
481063
481051
481040
481028
481016
481004
480991
480979
480965
480952
480938
480924
480910
480895
480880
480865
480849
480833
480816
480799
480782
480764
480746
480728
480709
480689
480669
480649
480628
480606
480584
480561
480538
480515
480490
480465
480440
480413
480387
480359
480331
480302
480272
480241
480210
480178
480145
480111
480076
480040
480004
479966
479927
479888
479847
479805
479762
479718
479672
479625
479578
479528
479478
479426
479372
479317
479261
479203
479143
479082
479019
478954
478887
478819
478748
478676
478601
478524
478447
478364
478277
478388
478786
479295
479840
480392
480939
481484
482027
482569
483110
483649
484187
484723
485258
485791
486342
486940
487596
488312
489087
489919
490808
491753
492748
493791
494878
496005
497168
498363
499586
500832
502096
503371
504652
505933
507209
508473
509718
510940
512135
513292
514407
515479
516498
517461
518364
519203
519971
520670
521292
521838
522305
522710
523089
523454
523810
524156
524491
524815
525127
525428
525717
525993
526255
526504
526739
526960
527166
527354
527523
527675
527810
527926
528025
528104
528164
528205
528226
528226
528205
528164
528102
528019
527917
527795
527654
527497
527326
527143
526953
526762
526576
526405
526260
526155
526108
526137
526262
526502
526864
527516
528112
536181
547942
564129
585493
610605
638448
668233
698552
727826
755912
782447
805578
824307
840162
853438
862493
867380
871889
875084
867260
852880
845021
842761
841088
839111
838459
836817
833970
837230
844515
850940
852807
850606
847151
845846
845761
845399
844379
843196
842361
841764
841052
840195
839544
839307
839353
839516
839746
840013
840311
840671
841123
841627
842108
842581
843148
843893
844847
846004
847142
848017
848551
849265
850200
851093
851632
851993
852640
853462
854105
854266
854428
854955
855603
855881
855734
855926
856510
857008
856660
856001
856122
856743
857031
856358
855426
854782
854346
853923
853464
852942
852333
851514
850365
849157
848337
847748
846582
844588
842686
841538
840417
838373
835470
832368
829240
825862
822129
818092
814077
809511
802747
793400
784704
782329
782716
793026
861784
947758
1.01857e+06
1.07434e+06
1.1101e+06
1.12358e+06
1.12417e+06
1.10693e+06
1.07875e+06
1.06118e+06
1.04435e+06
1.01742e+06
982226
947613
917248
888047
857754
827587
798890
771851
746599
723129
701456
681680
663988
648435
635070
623339
612813
603728
596106
589457
583567
578483
574174
570574
567495
564749
562300
560140
558273
556651
555186
553789
552402
551065
549749
548351
546890
545449
544081
542853
541883
541228
540905
541015
541494
541697
541674
541751
541624
540893
540868
540946
540723
540438
540152
539823
539452
539044
538602
538131
537632
537109
536566
536005
535430
534846
534254
533658
533061
532467
531878
531298
530729
530174
529636
529117
528620
528146
527699
527279
526889
526529
526202
525907
525647
525422
525232
525077
524958
524875
524828
524816
524838
524895
524984
525106
525260
525444
525657
525899
526167
526461
526778
527119
527482
527864
528265
528684
529118
529567
530028
530502
530986
531479
531980
532489
533003
533522
534045
534571
535099
535628
536158
536688
537217
537744
538269
538791
539310
539826
540338
540845
541348
541845
542337
542823
543303
543776
544241
544698
545145
545581
546004
546370
546534
546359
545805
544893
543612
542158
540307
539325
535767
412202
221680
204219
208980
209809
209401
208899
208457
208083
207775
207525
207324
207161
207029
206919
206826
206745
206673
206607
206547
206491
206438
206387
206339
206293
206249
206206
206166
206127
206090
206054
206020
205987
205956
205926
205898
205871
205845
205820
205797
205775
205753
205733
205714
205696
205678
205662
205646
205631
205617
205603
205590
205578
205566
205555
205544
205534
205524
205515
205506
205497
205489
205481
205474
205466
205459
205453
205446
205440
205434
205428
205423
205417
205412
205407
205402
205397
205392
205387
205383
205378
205374
205370
205366
205362
205357
205353
205350
205346
205342
205338
205334
205330
205327
205323
205319
205316
205312
205308
205305
205301
205297
205293
205290
205286
205282
205278
205274
205271
205267
205263
205259
205255
205251
205246
205242
205238
205234
205229
205225
205220
205216
205211
205206
205202
205197
205192
205187
205182
205176
205171
205166
205160
205155
205149
205143
205137
205131
205125
205118
205112
205105
205099
205092
205085
205077
205070
205063
205055
205047
205039
205031
205023
205014
205005
204996
204987
204978
204968
204958
204948
204938
204928
204917
204906
204895
204883
204872
204859
204847
204834
204822
204808
204795
204781
204767
204752
204737
204722
204706
204690
204673
204656
204639
204621
204603
204584
204565
204546
204525
204505
204484
204462
204439
204416
204393
204369
204344
204319
204292
204266
204238
204210
204181
204151
204120
204089
204056
204023
203989
203954
203918
203881
203843
203804
203763
203722
203679
203636
203591
203544
203497
203448
203397
203345
203292
203237
203181
203123
203063
203001
202938
202873
202806
202737
202666
202593
202512
202531
202716
202950
203183
203423
203665
203905
204142
204378
204612
204843
205072
205298
205522
205743
205968
206207
206464
206737
207028
207336
207661
208001
208355
208722
209100
209488
209884
210287
210696
211107
211520
211932
212340
212743
213139
213526
213899
214259
214603
214928
215232
215514
215771
216001
216203
216375
216515
216622
216694
216734
216748
216735
216704
216656
216593
216515
216419
216307
216176
216027
215857
215667
215454
215219
214959
214674
214363
214022
213652
213251
212817
212349
211844
211302
210719
210094
209424
208708
207942
207124
206250
205320
204328
203273
202151
200961
199699
198365
196957
195477
193928
192318
190657
188964
187270
185616
184058
182683
181556
180920
180077
181639
186467
192521
200519
210347
221709
234413
248111
262345
276976
291877
306555
320547
333926
346710
358534
369259
378945
387993
395542
398848
397884
397280
398516
399591
400260
401200
400886
399864
401827
406819
411865
414244
413518
411875
411177
411183
410904
410087
409143
408379
407672
406811
405867
405083
404547
404179
403910
403698
403516
403366
403277
403260
403267
403255
403256
403327
403507
403884
404469
405033
405317
405457
405762
406241
406596
406678
406738
407048
407463
407597
407462
407445
407715
407960
407830
407559
407649
408035
408051
407472
406948
407083
407484
407350
406680
405957
405405
404956
404534
404098
403643
403110
402337
401342
400472
399954
399379
398168
396553
395308
394480
393336
391415
388979
386358
383532
380378
376826
373112
369061
363178
354098
343385
333663
308598
276850
294945
325134
348221
367014
379018
383603
383754
377826
368300
362365
356645
347513
335600
323924
313708
303895
293732
283643
274080
265108
256768
249060
241992
235606
229968
225102
221002
217471
214388
211839
209795
208082
206649
205516
204662
204043
203575
203206
202931
202747
202646
202588
202530
202437
202312
202162
201936
201602
201207
200788
200369
200000
199741
199613
199649
199897
200175
200118
199899
199657
199079
198265
198250
197924
197364
196776
196162
195510
194826
194112
193373
192613
191836
191044
190243
189436
188626
187817
187013
186217
185431
184660
183905
183170
182457
181769
181109
180478
179878
179313
178783
178290
177836
177421
177048
176716
176428
176183
175982
175825
175713
175645
175622
175643
175708
175817
175968
176162
176396
176672
176986
177339
177728
178154
178614
179107
179632
180188
180772
181384
182021
182682
183365
184070
184793
185534
186292
187063
187848
188644
189451
190266
191089
191918
192752
193590
194430
195271
196112
196953
197792
198629
199462
200291
201115
201934
202745
203550
204347
205135
205913
206680
207436
208178
208905
209599
210208
210684
211008
211186
211194
211134
210701
211127
209213
230463
137967
114611
116644
118640
119273
119437
119446
119379
119273
119155
119041
118939
118851
118777
118715
118663
118619
118581
118548
118518
118490
118465
118441
118418
118396
118374
118354
118334
118315
118296
118277
118260
118243
118226
118210
118194
118179
118165
118151
118137
118124
118112
118100
118088
118077
118067
118057
118047
118038
118029
118020
118012
118004
117997
117990
117983
117976
117970
117964
117958
117953
117947
117942
117937
117933
117928
117924
117920
117916
117912
117908
117904
117901
117897
117894
117891
117887
117884
117881
117878
117876
117873
117870
117867
117865
117862
117860
117857
117855
117852
117850
117847
117845
117843
117840
117838
117836
117834
117831
117829
117827
117825
117822
117820
117818
117815
117813
117811
117808
117806
117804
117801
117799
117796
117794
117791
117789
117786
117784
117781
117778
117776
117773
117770
117767
117764
117761
117758
117755
117752
117749
117746
117742
117739
117735
117732
117728
117725
117721
117717
117713
117709
117705
117701
117697
117692
117688
117684
117679
117674
117669
117664
117659
117654
117649
117643
117638
117632
117626
117620
117614
117608
117602
117595
117588
117581
117574
117567
117560
117552
117544
117536
117528
117520
117511
117502
117493
117484
117475
117465
117455
117445
117434
117423
117412
117401
117389
117377
117365
117352
117340
117326
117313
117299
117284
117269
117254
117239
117223
117206
117189
117172
117154
117136
117117
117098
117078
117057
117036
117015
116993
116970
116946
116922
116897
116872
116845
116818
116790
116762
116732
116702
116671
116639
116606
116572
116537
116500
116463
116425
116386
116345
116303
116261
116216
116172
116117
116133
116286
116483
116672
116861
117052
117244
117435
117626
117815
118003
118190
118376
118559
118741
118925
119117
119319
119530
119751
119981
120220
120468
120723
120985
121254
121527
121805
122085
122368
122653
122937
123220
123500
123776
124047
124311
124567
124814
125051
125276
125487
125685
125867
126032
126179
126307
126416
126504
126570
126618
126652
126673
126683
126682
126670
126646
126609
126559
126494
126416
126321
126210
126081
125933
125766
125578
125367
125142
124895
124624
124326
123998
123638
123246
122818
122351
121844
121293
120694
120044
119340
118576
117747
116849
115876
114820
113675
112433
111085
109624
108039
106323
104468
102471
100334
98074.7
95726
93364.4
91088.8
89189.1
87104.5
86258.7
89034.9
92469.1
96766.9
102307
108948
116611
125178
134495
144401
154716
165257
175843
186180
196136
205798
215324
223755
230845
239412
248176
251087
251095
251984
253211
253742
254978
255805
253986
252748
254468
258445
261970
262987
262021
261039
260761
260622
260102
259297
258524
257855
257111
256219
255326
254583
253998
253529
253138
252792
252472
252194
251986
251827
251666
251491
251328
251198
251190
251416
251777
251999
252007
252048
252286
252555
252621
252530
252588
252849
253022
252914
252740
252798
253000
252984
252684
252538
252771
252980
252682
252085
251901
252195
252359
252061
251529
251036
250634
250285
249954
249645
249347
248916
248236
247502
247060
246839
246280
245197
244158
243583
243130
242234
240828
239177
237388
235418
233174
230905
228874
226233
221255
214454
210101
194654
151610
140756
157495
167638
176296
181781
183912
183894
180994
176544
173794
171097
166809
161255
155871
151199
146723
142110
137566
133298
129333
125686
122356
119348
116687
114404
112503
110954
109665
108606
107800
107196
106729
106394
106189
106091
106060
106058
106080
106125
106188
106249
106278
106258
106186
106079
105919
105660
105326
104969
104597
104229
103904
103652
103474
103397
103400
103277
102880
102459
102016
101342
100726
100742
100281
99719.7
99174.8
98638
98090.5
97538.3
96978.9
96416.1
95850.4
95284.5
94719.7
94158.2
93601.7
93052
92510.8
91979.4
91459.4
90952
90458.5
89980.2
89518.1
89073.5
88647.3
88240.6
87854.3
87489.3
87146.4
86826.3
86529.6
86257.1
86009.2
85786.4
85589.3
85418.2
85273.5
85155.4
85064.3
85000.3
84963.6
84954.3
84972.4
85018
85091.1
85191.4
85319
85473.6
85655.1
85863.1
86097.5
86357.8
86643.7
86954.9
87290.8
87651
88035
88442.2
88871.9
89323.4
89796.2
90289.5
90802.5
91334.5
91884.6
92452.2
93036.3
93636.2
94251
94879.9
95521.9
96176.2
96841.8
97517.9
98203.5
98897.7
99599.5
100308
101023
101742
102466
103193
103923
104655
105387
106119
106851
107582
108310
109036
109757
110474
111185
111890
112579
113224
113800
114301
114731
115089
115448
115629
116624
117800
128289
92527.3
75547
74332.5
75577.4
76405.2
76822.4
77036.3
77138.5
77171.9
77164.8
77137.2
77101.6
77065.3
77031.8
77002.3
76977.1
76955.8
76937.6
76921.9
76908.1
76895.8
76884.5
76873.8
76863.7
76853.8
76844.2
76834.6
76825.2
76815.9
76806.6
76797.4
76788.3
76779.3
76770.4
76761.6
76753
76744.6
76736.3
76728.3
76720.4
76712.8
76705.4
76698.2
76691.2
76684.4
76677.9
76671.6
76665.5
76659.7
76654
76648.6
76643.3
76638.3
76633.4
76628.7
76624.3
76619.9
76615.8
76611.8
76608
76604.3
76600.7
76597.3
76594
76590.9
76587.8
76584.9
76582
76579.3
76576.7
76574.1
76571.6
76569.3
76567
76564.7
76562.5
76560.4
76558.3
76556.3
76554.4
76552.4
76550.6
76548.7
76546.9
76545.2
76543.4
76541.8
76540.1
76538.5
76536.9
76535.3
76533.8
76532.2
76530.7
76529.2
76527.7
76526.2
76524.8
76523.3
76521.8
76520.4
76518.9
76517.5
76516
76514.5
76513.1
76511.6
76510.1
76508.6
76507.1
76505.6
76504
76502.5
76500.9
76499.3
76497.7
76496.1
76494.5
76492.8
76491.1
76489.4
76487.7
76485.9
76484.2
76482.3
76480.5
76478.6
76476.7
76474.8
76472.8
76470.8
76468.7
76466.6
76464.5
76462.3
76460.1
76457.8
76455.5
76453.2
76450.8
76448.3
76445.8
76443.3
76440.6
76438
76435.2
76432.4
76429.6
76426.7
76423.7
76420.6
76417.5
76414.3
76411
76407.7
76404.2
76400.7
76397.1
76393.4
76389.7
76385.8
76381.9
76377.8
76373.7
76369.4
76365.1
76360.6
76356
76351.3
76346.5
76341.6
76336.6
76331.4
76326.1
76320.7
76315.1
76309.4
76303.5
76297.5
76291.3
76285
76278.5
76271.9
76265
76258
76250.8
76243.5
76235.9
76228.1
76220.1
76211.9
76203.5
76194.9
76186
76176.9
76167.5
76157.9
76148
76137.9
76127.5
76116.8
76105.8
76094.5
76082.9
76071
76058.7
76046.1
76033.1
76019.8
76006.1
75992
75977.5
75962.6
75947.3
75931.6
75915.4
75898.7
75881.5
75863.9
75845.8
75827.1
75807.9
75788.1
75767.7
75746.8
75725.2
75703
75680.2
75656.6
75632.4
75607.5
75581.8
75555.3
75528.2
75499.6
75472.3
75434.7
75456.1
75586
75753.7
75919.1
76081.4
76244.4
76408.4
76572.6
76736.8
76900.7
77064.2
77227.2
77389.6
77551.5
77712.3
77874.9
78043
78217.8
78399.3
78587.3
78781.7
78982.5
79189.6
79402.1
79619.6
79841.4
80067
80295.8
80527
80760.2
80994.6
81229.4
81463.6
81696.5
81927.3
82155.1
82379
82597.9
82811.1
83018.2
83217.4
83408.2
83590.2
83762.1
83923.2
84072.9
84210.5
84334.7
84447.2
84545.6
84631.1
84703.4
84766.7
84823.3
84873.2
84915.8
84950.4
84976.8
84994.3
85002.4
85000.6
84988.2
84964.5
84928.8
84880.3
84818.2
84741.7
84649.7
84546.6
84430.2
84297.1
84144.8
83971.8
83776.6
83557.6
83312.9
83040.6
82738.4
82404
82034.5
81627.1
81178.3
80684.2
80140.7
79543
78885.4
78161.8
77365
76486.7
75517.5
74446.5
73261.2
71947
70487.9
68866.1
67063.4
65064.3
62860.8
60469.7
57937.5
55479.6
52689.4
50525.9
51977.6
54185.7
56749.7
60157.1
64333.3
69218.9
74758.1
80909.7
87552.4
94500
101672
109059
116386
123410
130329
137443
143813
148764
155741
165367
170916
172878
174442
176178
177248
178898
180584
179574
177711
177647
180143
183536
185563
185683
185167
184984
185028
184865
184412
183878
183398
182873
182201
181445
180741
180141
179640
179215
178838
178486
178162
177893
177677
177471
177249
177017
176778
176603
176616
176808
176970
176959
176913
177011
177198
177269
177175
177135
177281
177440
177396
177223
177185
177317
177355
177131
176924
177026
177250
177140
176670
176375
176514
176729
176653
176322
175937
175595
175298
175027
174794
174606
174359
173907
173333
172951
172838
172591
171906
171115
170669
170483
170109
169355
168364
167255
166042
164654
163312
162390
161522
159195
155263
154436
148962
111159
82771.9
92323.1
98049.7
102779
105750
106920
106810
105087
102635
101141
99629.1
97247.4
94208
91322.8
88844
86477.7
84052.4
81687.3
79486.5
77456.8
75602.4
73921.1
72418.6
71109.9
70009.8
69107.8
68370.6
67762.9
67286.5
66927.6
66643.4
66424.7
66279.4
66194.1
66145.6
66104.6
66063.2
66035.1
66017.1
65998.8
65959.9
65883
65768.5
65623.5
65463.9
65263.6
64994.3
64696.6
64410.2
64130.2
63869.4
63653.8
63494.5
63386.1
63340.2
63310.6
63141.9
62800.4
62483.7
62156.2
61706.6
61388.4
61472.2
61166.3
60819.7
60497.7
60189.7
59879.2
59569.7
59258.4
58947.4
58636.5
58327
58019.3
57714.4
57413.1
57116.2
56824.4
56538.4
56258.8
55986.3
55721.3
55464.5
55216.2
54977.2
54747.8
54528.6
54320
54122.5
53936.4
53762.3
53600.3
53450.9
53314.4
53191.1
53081.3
52985.1
52903
52835
52781.5
52742.5
52718.4
52709.1
52715
52735.9
52772.2
52823.8
52890.7
52973.1
53070.9
53184.1
53312.8
53456.9
53616.3
53791
53980.9
54185.8
54405.7
54640.3
54889.4
55153
55430.7
55722.3
56027.6
56346.4
56678.3
57023.2
57380.6
57750.3
58131.9
58525.1
58929.6
59344.8
59770.5
60206.2
60651.3
61105.6
61568.5
62039.5
62518.3
63004.2
63496.8
63995.7
64500.4
65010.3
65525
66044
66566.8
67092.8
67621.6
68152.7
68685.5
69219.7
69754.6
70290.2
70820.9
71329.4
71800.4
72234.6
72633.6
73007
73411.5
73759
74758.4
77205.6
78416.5
64779.1
54569.7
52241.1
52493.2
53057.7
53470.4
53739.9
53914
54022.7
54086.4
54120.5
54136.4
54141.8
54141.8
54139.4
54136.1
54132.8
54129.8
54127.2
54125
54123
54121.1
54119.2
54117.2
54115.1
54112.8
54110.3
54107.6
54104.7
54101.6
54098.2
54094.8
54091.1
54087.4
54083.5
54079.6
54075.7
54071.7
54067.7
54063.7
54059.8
54055.8
54051.9
54048.1
54044.4
54040.7
54037.1
54033.6
54030.2
54026.8
54023.6
54020.4
54017.4
54014.4
54011.5
54008.7
54006
54003.4
54000.9
53998.5
53996.1
53993.9
53991.7
53989.6
53987.5
53985.5
53983.6
53981.8
53980
53978.2
53976.6
53974.9
53973.4
53971.8
53970.3
53968.9
53967.5
53966.1
53964.8
53963.5
53962.2
53960.9
53959.7
53958.5
53957.3
53956.2
53955
53953.9
53952.8
53951.7
53950.7
53949.6
53948.6
53947.6
53946.5
53945.5
53944.5
53943.6
53942.6
53941.6
53940.6
53939.6
53938.6
53937.7
53936.7
53935.7
53934.7
53933.7
53932.7
53931.7
53930.6
53929.6
53928.6
53927.5
53926.4
53925.4
53924.3
53923.2
53922.1
53920.9
53919.8
53918.6
53917.4
53916.2
53915
53913.7
53912.5
53911.2
53909.9
53908.5
53907.2
53905.8
53904.4
53902.9
53901.5
53900
53898.4
53896.9
53895.3
53893.7
53892
53890.3
53888.6
53886.8
53885
53883.2
53881.3
53879.3
53877.4
53875.4
53873.3
53871.2
53869
53866.8
53864.5
53862.2
53859.9
53857.4
53854.9
53852.4
53849.8
53847.1
53844.4
53841.6
53838.7
53835.8
53832.8
53829.7
53826.6
53823.3
53820
53816.6
53813.2
53809.6
53805.9
53802.2
53798.3
53794.4
53790.4
53786.2
53782
53777.6
53773.1
53768.6
53763.9
53759
53754.1
53749
53743.8
53738.4
53732.9
53727.3
53721.5
53715.6
53709.5
53703.2
53696.8
53690.2
53683.4
53676.4
53669.3
53661.9
53654.4
53646.6
53638.6
53630.4
53622
53613.4
53604.5
53595.3
53586
53576.3
53566.4
53556.2
53545.7
53534.9
53523.8
53512.4
53500.6
53488.5
53476.1
53463.3
53450.2
53436.6
53422.7
53408.4
53393.6
53378.4
53362.8
53346.7
53330.1
53313.1
53295.5
53277.5
53258.5
53240.5
53213.8
53237.2
53347.7
53488.9
53632.7
53774.2
53915.2
54056.6
54198.4
54340.6
54482.8
54625.2
54767.5
54909.8
55052
55193.8
55337.2
55484.8
55637.3
55794.9
55957.4
56124.6
56296.8
56473.6
56654.6
56839.6
57028
57219.5
57413.6
57610
57808.1
58007.6
58207.9
58408.3
58608.3
58807.2
59004.6
59199.8
59392
59580.7
59765.7
59945.6
60120.2
60289.2
60451.5
60606.7
60754.5
60894.2
61025
61147.8
61261.2
61365.9
61460
61546.6
61628.6
61706.3
61779.3
61847.3
61909.7
61966.4
62016.8
62060.6
62097.3
62126.5
62147.6
62160.1
62163.4
62156.8
62139.7
62111.9
62074
62024.6
61962
61884.8
61791.9
61682.1
61554
61406.1
61236.8
61044.3
60826.4
60581.1
60305.5
59996.8
59651.7
59266.4
58836.6
58357.1
57822.2
57224.9
56557
55808.9
54968.9
54022.9
52953.9
51741.3
50360.5
48783.4
46980.6
44929.9
42627.3
40202.2
37265.1
34464.7
34950.8
36359.2
37939.5
40092.4
42778.9
45945.6
49553.8
53600.3
58007.5
62624.2
67405.7
72411.1
77463.4
82298.4
87067.5
92049.3
96553.9
99939.5
105039
113369
119767
123346
125930
128348
130124
132255
134539
134534
133091
132399
133801
136602
138961
139900
140025
140155
140430
140586
140494
140265
140026
139740
139319
138777
138214
137698
137246
136852
136501
136170
135858
135586
135358
135148
134925
134685
134422
134184
134082
134147
134244
134229
134160
134183
134300
134364
134295
134227
134298
134423
134419
134288
134218
134292
134341
134192
133998
134018
134196
134184
133855
133561
133587
133764
133790
133607
133332
133055
132804
132580
132395
132264
132114
131812
131387
131076
130991
130874
130449
129886
129542
129448
129308
128928
128358
127688
126947
126095
125301
124934
124900
124077
121976
122924
123885
94257.6
57756.7
60232.8
64638.5
67625.5
69491.4
70233.7
70088.4
68955
67489.2
66603.9
65663.7
64212.4
62398
60723.1
59281.2
57901.2
56489.1
55115.1
53830.7
52636.1
51533.1
50523.8
49617.2
48825.4
48155.5
47592.7
47112
46712.1
46402.5
46152.9
45934.7
45764.9
45650.5
45571.3
45507.2
45439.8
45374.9
45328.3
45292.6
45256.1
45201.9
45120.9
45019.6
44906.8
44791.6
44650.1
44467.4
44281.1
44117.1
43967.2
43839.9
43751.3
43704.6
43693