/*--------------------------------*- C++ -*----------------------------------*\
  =========                 |
  \\      /  F ield         | OpenFOAM: The Open Source CFD Toolbox
   \\    /   O peration     | Website:  https://openfoam.org
    \\  /    A nd           | Version:  7
     \\/     M anipulation  |
\*---------------------------------------------------------------------------*/
FoamFile
{
    version     2.0;
    format      ascii;
    class       volScalarField;
    location    "2000";
    object      p;
}
// * * * * * * * * * * * * * * * * * * * * * * * * * * * * * * * * * * * * * //

dimensions      [0 2 -2 0 0 0 0];

internalField   nonuniform List<scalar> 
51626
(
6.80609
7.31301
6.78159
6.62505
6.54475
6.47923
6.44662
6.43403
6.43166
6.43495
6.44021
6.44512
6.44856
6.45011
6.4497
6.44745
6.44354
6.43818
6.43158
6.42393
6.41539
6.40609
6.39615
6.38567
6.37472
6.36338
6.35169
6.33972
6.3275
6.31506
6.30243
6.28965
6.27672
6.26368
6.25054
6.23732
6.22402
6.21067
6.19727
6.18383
6.17036
6.15688
6.14339
6.12989
6.11639
6.1029
6.08942
6.07597
6.06254
6.04913
6.03576
6.02243
6.00914
5.99589
5.98269
5.96954
5.95644
5.94341
5.93043
5.91752
5.90467
5.89189
5.87918
5.86654
5.85398
5.8415
5.8291
5.81678
5.80455
5.7924
5.78035
5.76839
5.75653
5.74478
5.73312
5.72158
5.71014
5.69881
5.6876
5.67648
5.66548
5.65457
5.64375
5.63304
5.62241
5.61189
5.60146
5.59113
5.5809
5.57078
5.56077
5.55086
5.54107
5.53139
5.52182
5.51238
5.50307
5.49388
5.48483
5.4759
5.46712
5.45848
5.44998
5.44163
5.43343
5.42539
5.41751
5.40979
5.40223
5.39485
5.38764
5.38061
5.37377
5.36711
5.36065
5.35439
5.34833
5.34249
5.33686
5.33145
5.32627
5.32132
5.3166
5.31214
5.30792
5.30396
5.30027
5.29685
5.29371
5.29086
5.2883
5.28605
5.28411
5.28249
5.28121
5.28027
5.27968
5.27945
5.27959
5.28012
5.28104
5.28237
5.28411
5.28629
5.28891
5.29199
5.29553
5.29956
5.3041
5.30914
5.31472
5.32084
5.32752
5.33478
5.34263
5.3511
5.36021
5.36996
5.38039
5.39151
5.40334
5.41591
5.42924
5.44335
5.45827
5.47402
5.49062
5.50811
5.52651
5.54585
5.56616
5.58747
5.60981
5.63321
5.65771
5.68334
5.71013
5.73813
5.76737
5.79789
5.82972
5.86292
5.89751
5.93356
5.9711
6.01017
6.05083
6.09313
6.13711
6.18284
6.23036
6.27972
6.331
6.38424
6.43951
6.49688
6.5564
6.61815
6.6822
6.74861
6.81746
6.88884
6.96281
7.03946
7.11887
7.20113
7.28633
7.37455
7.46591
7.56048
7.65838
7.7597
7.86456
7.97306
8.08531
8.20144
8.32156
8.44581
8.57429
8.70716
8.84454
8.98657
9.1334
9.28517
9.44204
9.60416
9.77169
9.9448
10.1236
10.3084
10.4993
10.6965
10.8999
11.1105
11.3265
11.5529
11.7782
12.03
12.2481
12.486
12.7886
13.061
13.3383
13.629
13.9285
14.2368
14.555
14.8833
15.222
15.5714
15.932
16.3038
16.6879
17.0828
17.4901
17.9114
18.346
18.7942
19.2567
19.7335
20.2255
20.7328
21.2561
21.7959
22.3525
22.9266
23.5187
24.1292
24.759
25.4084
26.0782
26.7688
27.4811
28.2157
28.9732
29.7546
30.5603
31.391
32.2486
33.1321
34.0437
34.9844
35.9539
36.9545
37.9862
39.0513
40.1485
41.2826
42.45
43.6566
44.899
46.1817
47.5065
48.8739
50.2852
51.742
53.246
54.7987
56.4018
58.0571
59.7665
61.5319
63.3554
65.2389
67.1848
69.1954
71.2726
73.419
75.6376
77.9309
80.3018
82.7532
85.2881
87.9096
90.621
93.4257
96.3272
99.329
102.435
105.648
108.973
112.413
115.971
119.652
123.457
127.389
131.449
135.639
139.954
144.392
148.944
153.596
158.329
163.109
167.898
172.623
177.236
181.566
185.663
188.901
193.479
194.657
196.742
197.639
197.688
196.504
193.881
189.478
182.995
174.39
163.403
149.605
133.066
114.366
93.1653
69.1123
43.297
17.0825
-11.9223
-45.0142
-69.2219
-81.2469
-101.09
-120.599
-137.126
-152.381
-168.798
-180.449
-189.589
-208.326
-229.959
-249.926
-264.297
-274.552
-284.984
-296.79
-307.744
-316.859
-324.793
-332.266
-339.327
-345.595
-350.918
-355.745
-360.492
-365.144
-369.571
-373.813
-377.852
-381.691
-385.377
-388.984
-392.503
-395.853
-399.026
-402.162
-405.372
-408.715
-412.385
-416.261
-419.843
-422.928
-426.034
-429.53
-433.039
-436.072
-438.747
-441.627
-444.89
-447.93
-450.303
-452.488
-455.084
-457.916
-460.288
-462.032
-463.919
-466.508
-469.009
-470.452
-471.275
-472.785
-475.248
-477.261
-478.016
-478.343
-478.859
-479.467
-479.983
-480.42
-480.729
-480.876
-480.729
-480.08
-479.185
-478.589
-478.21
-477.11
-474.841
-472.381
-470.589
-468.611
-465.298
-460.606
-455.185
-449.152
-442.174
-434.182
-425.006
-414.799
-402.679
-386.702
-366.015
-342.969
-318.956
-290.893
-250.167
-236.812
-231.472
-229.666
-228.011
-227.044
-226.404
-225.92
-225.496
-225.405
-225.316
-225.224
-225.196
-225.248
-225.381
-225.532
-225.687
-225.864
-226.07
-226.294
-226.532
-226.779
-227.036
-227.305
-227.592
-227.893
-228.216
-228.527
-228.807
-229.095
-229.395
-229.649
-229.852
-230.038
-230.192
-230.312
-230.371
-230.331
-230.219
-230.034
-229.781
-229.453
-229.011
-228.458
-227.763
-226.965
-226.096
-225.089
-223.925
-222.689
-221.394
-220.051
-218.678
-217.325
-215.962
-214.57
-213.206
-211.84
-209.913
-207.622
-205.267
-202.668
-199.063
-196.87
-194.07
-191.136
-187.955
-184.716
-181.348
-177.917
-174.402
-170.831
-167.201
-163.526
-159.811
-156.065
-152.294
-148.507
-144.711
-140.913
-137.119
-133.337
-129.572
-125.83
-122.118
-118.442
-114.806
-111.215
-107.676
-104.191
-100.767
-97.4052
-94.1109
-90.8868
-87.736
-84.6611
-81.6645
-78.7482
-75.914
-73.1632
-70.4971
-67.9164
-65.4218
-63.0135
-60.6917
-58.4562
-56.3066
-54.2424
-52.263
-50.3674
-48.5545
-46.8232
-45.1722
-43.6001
-42.1056
-40.6869
-39.3427
-38.071
-36.8704
-35.7388
-34.6744
-33.6754
-32.7399
-31.8657
-31.0512
-30.2943
-29.5931
-28.9458
-28.3507
-27.8057
-27.3093
-26.8597
-26.4552
-26.0941
-25.7748
-25.4957
-25.2553
-25.0519
-24.8842
-24.7508
-24.6502
-24.5812
-24.5424
-24.5326
-24.5506
-24.5949
-24.6644
-24.7577
-24.8735
-25.0102
-25.1662
-25.3398
-25.5283
-25.73
-25.9403
-26.1572
-26.3711
-26.5809
-26.7624
-26.9323
-27.0025
-27.0642
-26.7871
-26.6726
-24.9875
-25.4096
6.80389
7.30957
6.78257
6.62601
6.54548
6.47976
6.44699
6.43429
6.43185
6.43507
6.4403
6.44518
6.44861
6.45016
6.44974
6.44749
6.44357
6.43821
6.43162
6.42396
6.41542
6.40612
6.39618
6.38569
6.37474
6.3634
6.35172
6.33974
6.32752
6.31508
6.30245
6.28966
6.27674
6.2637
6.25056
6.23733
6.22403
6.21068
6.19728
6.18384
6.17038
6.15689
6.1434
6.1299
6.1164
6.10291
6.08943
6.07598
6.06254
6.04914
6.03577
6.02243
6.00914
5.99589
5.98269
5.96954
5.95645
5.94341
5.93043
5.91752
5.90467
5.89189
5.87918
5.86655
5.85399
5.8415
5.8291
5.81678
5.80455
5.79241
5.78035
5.7684
5.75654
5.74478
5.73313
5.72158
5.71014
5.69881
5.6876
5.67649
5.66548
5.65457
5.64376
5.63304
5.62242
5.61189
5.60146
5.59113
5.5809
5.57078
5.56077
5.55086
5.54107
5.53139
5.52183
5.51239
5.50307
5.49388
5.48483
5.47591
5.46712
5.45848
5.44998
5.44163
5.43344
5.42539
5.41751
5.40979
5.40224
5.39485
5.38764
5.38061
5.37377
5.36712
5.36065
5.35439
5.34834
5.34249
5.33686
5.33145
5.32627
5.32132
5.31661
5.31214
5.30792
5.30397
5.30027
5.29685
5.29371
5.29086
5.2883
5.28605
5.28411
5.2825
5.28121
5.28027
5.27968
5.27945
5.2796
5.28012
5.28104
5.28237
5.28412
5.28629
5.28891
5.29199
5.29554
5.29957
5.3041
5.30915
5.31472
5.32084
5.32752
5.33478
5.34264
5.35111
5.36021
5.36997
5.38039
5.39151
5.40335
5.41592
5.42925
5.44336
5.45828
5.47402
5.49063
5.50812
5.52652
5.54586
5.56617
5.58748
5.60982
5.63322
5.65772
5.68335
5.71014
5.73814
5.76738
5.79789
5.82973
5.86293
5.89752
5.93357
5.97111
6.01018
6.05084
6.09314
6.13712
6.18285
6.23037
6.27973
6.33101
6.38425
6.43953
6.49689
6.55641
6.61816
6.68221
6.74862
6.81748
6.88885
6.96282
7.03947
7.11888
7.20114
7.28634
7.37457
7.46592
7.5605
7.6584
7.75972
7.86458
7.97308
8.08533
8.20146
8.32159
8.44583
8.57432
8.70718
8.84456
8.98659
9.13342
9.2852
9.44206
9.60419
9.77172
9.94483
10.1237
10.3085
10.4993
10.6965
10.8999
11.1105
11.3266
11.5529
11.7783
12.0301
12.2481
12.4861
12.7887
13.061
13.3384
13.6291
13.9285
14.2369
14.555
14.8833
15.2221
15.5715
15.9321
16.3038
16.6879
17.0828
17.4902
17.9115
18.3461
18.7943
19.2567
19.7335
20.2255
20.7329
21.2562
21.7959
22.3526
22.9267
23.5188
24.1293
24.759
25.4085
26.0782
26.7689
27.4812
28.2157
28.9733
29.7547
30.5604
31.3911
32.2487
33.1322
34.0438
34.9844
35.954
36.9546
37.9863
39.0514
40.1486
41.2827
42.4501
43.6567
44.8991
46.1819
47.5066
48.874
50.2853
51.7422
53.2461
54.7988
56.4019
58.0573
59.7667
61.5321
63.3555
65.2391
67.185
69.1956
71.2728
73.4192
75.6378
77.9311
80.302
82.7534
85.2883
87.9098
90.6213
93.426
96.3275
99.3293
102.435
105.649
108.973
112.413
115.972
119.652
123.457
127.389
131.45
135.639
139.955
144.393
148.945
153.597
158.329
163.109
167.898
172.624
177.237
181.567
185.664
188.903
193.484
194.662
196.747
197.64
197.682
196.489
193.852
189.431
182.929
174.301
163.289
149.464
132.903
114.182
92.9596
68.8909
43.0725
16.8503
-12.171
-45.2213
-69.3396
-81.3546
-101.218
-120.71
-137.221
-152.472
-168.873
-180.505
-189.671
-208.439
-230.065
-250.004
-264.346
-274.593
-285.029
-296.833
-307.778
-316.886
-324.815
-332.286
-339.343
-345.608
-350.929
-355.755
-360.501
-365.153
-369.579
-373.82
-377.858
-381.697
-385.382
-388.988
-392.507
-395.857
-399.03
-402.165
-405.376
-408.719
-412.389
-416.265
-419.845
-422.93
-426.036
-429.532
-433.04
-436.073
-438.747
-441.628
-444.891
-447.929
-450.302
-452.488
-455.084
-457.914
-460.285
-462.029
-463.917
-466.506
-469.005
-470.447
-471.271
-472.783
-475.244
-477.255
-478.01
-478.339
-478.854
-479.462
-479.978
-480.415
-480.723
-480.87
-480.723
-480.075
-479.18
-478.584
-478.204
-477.104
-474.836
-472.377
-470.584
-468.606
-465.294
-460.604
-455.185
-449.154
-442.178
-434.189
-425.016
-414.813
-402.7
-386.737
-366.065
-343.029
-319.031
-291.032
-250.311
-236.874
-231.501
-229.682
-228.024
-227.052
-226.409
-225.925
-225.499
-225.406
-225.317
-225.225
-225.196
-225.247
-225.38
-225.531
-225.685
-225.862
-226.068
-226.292
-226.53
-226.777
-227.034
-227.303
-227.59
-227.891
-228.214
-228.526
-228.806
-229.093
-229.394
-229.647
-229.852
-230.037
-230.191
-230.312
-230.371
-230.332
-230.22
-230.034
-229.782
-229.454
-229.012
-228.46
-227.765
-226.967
-226.098
-225.091
-223.927
-222.691
-221.397
-220.054
-218.68
-217.327
-215.964
-214.571
-213.206
-211.84
-209.913
-207.622
-205.267
-202.668
-199.065
-196.871
-194.07
-191.136
-187.955
-184.716
-181.348
-177.917
-174.402
-170.832
-167.201
-163.527
-159.811
-156.065
-152.294
-148.508
-144.711
-140.913
-137.119
-133.337
-129.572
-125.831
-122.119
-118.442
-114.806
-111.216
-107.676
-104.192
-100.767
-97.4058
-94.1114
-90.8873
-87.7366
-84.6617
-81.6651
-78.7488
-75.9145
-73.1638
-70.4977
-67.917
-65.4224
-63.0141
-60.6923
-58.4567
-56.3072
-54.243
-52.2636
-50.3679
-48.555
-46.8237
-45.1727
-43.6006
-42.106
-40.6874
-39.3431
-38.0715
-36.8708
-35.7392
-34.6748
-33.6758
-32.7402
-31.8661
-31.0516
-30.2946
-29.5935
-28.9462
-28.351
-27.8061
-27.3097
-26.86
-26.4555
-26.0944
-25.7751
-25.496
-25.2555
-25.0522
-24.8845
-24.751
-24.6505
-24.5814
-24.5427
-24.5329
-24.5508
-24.5951
-24.6646
-24.7579
-24.8737
-25.0104
-25.1664
-25.3399
-25.5285
-25.7302
-25.9405
-26.1574
-26.3713
-26.581
-26.7625
-26.9324
-27.0026
-27.0642
-26.787
-26.6724
-24.9866
-25.4083
6.81725
7.3053
6.78381
6.62725
6.54664
6.48069
6.4477
6.43482
6.43223
6.43535
6.4405
6.44533
6.44873
6.45025
6.44982
6.44756
6.44364
6.43827
6.43167
6.42402
6.41547
6.40617
6.39623
6.38574
6.37479
6.36344
6.35176
6.33978
6.32756
6.31511
6.30248
6.2897
6.27677
6.26373
6.25058
6.23736
6.22406
6.2107
6.1973
6.18386
6.1704
6.15691
6.14341
6.12991
6.11641
6.10292
6.08945
6.07599
6.06256
6.04915
6.03578
6.02245
6.00915
5.9959
5.9827
5.96955
5.95646
5.94342
5.93044
5.91753
5.90468
5.8919
5.87919
5.86655
5.85399
5.84151
5.82911
5.81679
5.80455
5.79241
5.78036
5.7684
5.75654
5.74478
5.73313
5.72158
5.71015
5.69882
5.6876
5.67649
5.66548
5.65457
5.64376
5.63304
5.62242
5.61189
5.60146
5.59113
5.58091
5.57079
5.56077
5.55087
5.54107
5.53139
5.52183
5.51239
5.50307
5.49389
5.48483
5.47591
5.46713
5.45849
5.44999
5.44164
5.43344
5.4254
5.41751
5.40979
5.40224
5.39486
5.38765
5.38062
5.37377
5.36712
5.36066
5.3544
5.34834
5.34249
5.33686
5.33145
5.32627
5.32132
5.31661
5.31214
5.30793
5.30397
5.30028
5.29686
5.29372
5.29086
5.28831
5.28606
5.28412
5.2825
5.28122
5.28028
5.27969
5.27946
5.2796
5.28013
5.28105
5.28238
5.28412
5.2863
5.28892
5.292
5.29554
5.29958
5.30411
5.30915
5.31473
5.32085
5.32753
5.33479
5.34265
5.35112
5.36022
5.36998
5.3804
5.39152
5.40336
5.41593
5.42926
5.44337
5.45829
5.47403
5.49064
5.50813
5.52653
5.54587
5.56618
5.58749
5.60983
5.63323
5.65773
5.68336
5.71016
5.73815
5.76739
5.79791
5.82974
5.86294
5.89754
5.93358
5.97112
6.0102
6.05086
6.09316
6.13714
6.18287
6.23039
6.27975
6.33103
6.38427
6.43955
6.49691
6.55644
6.61819
6.68223
6.74865
6.8175
6.88888
6.96285
7.0395
7.11891
7.20117
7.28637
7.3746
7.46596
7.56053
7.65843
7.75975
7.86461
7.97311
8.08537
8.2015
8.32162
8.44587
8.57436
8.70722
8.84461
8.98664
9.13347
9.28524
9.44211
9.60424
9.77177
9.94488
10.1237
10.3085
10.4994
10.6966
10.9
11.1106
11.3266
11.553
11.7783
12.0302
12.2482
12.4862
12.7888
13.0611
13.3385
13.6292
13.9286
14.237
14.5551
14.8834
15.2222
15.5716
15.9322
16.3039
16.6881
17.0829
17.4903
17.9116
18.3462
18.7944
19.2568
19.7336
20.2256
20.733
21.2563
21.7961
22.3527
22.9268
23.5189
24.1294
24.7592
25.4086
26.0784
26.7691
27.4814
28.2159
28.9735
29.7549
30.5606
31.3913
32.2489
33.1324
34.044
34.9847
35.9542
36.9548
37.9866
39.0516
40.1488
41.283
42.4504
43.657
44.8994
46.1821
47.5069
48.8743
50.2856
51.7425
53.2464
54.7991
56.4023
58.0576
59.767
61.5325
63.3559
65.2395
67.1854
69.196
71.2732
73.4197
75.6382
77.9316
80.3025
82.7539
85.2889
87.9104
90.6219
93.4266
96.3281
99.3299
102.436
105.649
108.974
112.414
115.972
119.653
123.458
127.39
131.451
135.64
139.956
144.394
148.946
153.598
158.331
163.11
167.9
172.625
177.238
181.568
185.665
188.906
193.489
194.666
196.752
197.64
197.675
196.471
193.82
189.38
182.857
174.207
163.169
149.318
132.735
113.995
92.7518
68.6707
42.8524
16.6244
-12.4055
-45.3984
-69.428
-81.4498
-101.332
-120.805
-137.3
-152.549
-168.932
-180.55
-189.753
-208.546
-230.157
-250.058
-264.373
-274.617
-285.058
-296.859
-307.795
-316.896
-324.822
-332.292
-339.346
-345.607
-350.926
-355.753
-360.5
-365.151
-369.576
-373.817
-377.855
-381.693
-385.378
-388.985
-392.503
-395.853
-399.026
-402.162
-405.373
-408.717
-412.387
-416.261
-419.84
-422.926
-426.032
-429.528
-433.034
-436.066
-438.741
-441.622
-444.884
-447.921
-450.293
-452.48
-455.076
-457.905
-460.275
-462.02
-463.909
-466.496
-468.993
-470.435
-471.261
-472.774
-475.232
-477.241
-477.997
-478.326
-478.842
-479.449
-479.965
-480.402
-480.71
-480.856
-480.708
-480.061
-479.166
-478.57
-478.188
-477.088
-474.822
-472.364
-470.569
-468.589
-465.279
-460.591
-455.174
-449.144
-442.17
-434.184
-425.014
-414.813
-402.706
-386.757
-366.103
-343.077
-319.089
-291.159
-250.451
-236.934
-231.53
-229.698
-228.036
-227.061
-226.415
-225.93
-225.501
-225.407
-225.318
-225.226
-225.196
-225.246
-225.378
-225.529
-225.683
-225.86
-226.066
-226.29
-226.528
-226.775
-227.032
-227.301
-227.588
-227.889
-228.213
-228.524
-228.804
-229.092
-229.393
-229.647
-229.851
-230.037
-230.191
-230.312
-230.371
-230.332
-230.221
-230.036
-229.783
-229.455
-229.014
-228.462
-227.768
-226.97
-226.101
-225.094
-223.931
-222.695
-221.401
-220.058
-218.684
-217.331
-215.968
-214.574
-213.209
-211.84
-209.913
-207.623
-205.266
-202.668
-199.069
-196.872
-194.07
-191.136
-187.955
-184.716
-181.348
-177.918
-174.403
-170.832
-167.202
-163.527
-159.812
-156.066
-152.295
-148.508
-144.712
-140.914
-137.121
-133.338
-129.573
-125.832
-122.12
-118.443
-114.807
-111.217
-107.678
-104.193
-100.769
-97.4072
-94.1128
-90.8888
-87.738
-84.6631
-81.6665
-78.7503
-75.916
-73.1653
-70.4991
-67.9185
-65.4238
-63.0155
-60.6937
-58.4582
-56.3086
-54.2445
-52.265
-50.3693
-48.5564
-46.825
-45.174
-43.6019
-42.1073
-40.6886
-39.3443
-38.0727
-36.8719
-35.7403
-34.6759
-33.6769
-32.7413
-31.8671
-31.0526
-30.2956
-29.5944
-28.9471
-28.3519
-27.8069
-27.3105
-26.8609
-26.4563
-26.0952
-25.7759
-25.4967
-25.2562
-25.0528
-24.8851
-24.7517
-24.6511
-24.582
-24.5433
-24.5334
-24.5513
-24.5956
-24.6651
-24.7584
-24.8741
-25.0109
-25.1668
-25.3404
-25.5289
-25.7306
-25.9408
-26.1577
-26.3716
-26.5813
-26.7628
-26.9327
-27.0028
-27.0644
-26.787
-26.6724
-24.9851
-25.4068
6.84266
7.30172
6.78556
6.62857
6.54814
6.48201
6.44879
6.4357
6.43291
6.43588
6.44091
6.44564
6.44897
6.45044
6.44998
6.44769
6.44376
6.43838
6.43177
6.42411
6.41556
6.40625
6.39631
6.38582
6.37486
6.36351
6.35183
6.33985
6.32762
6.31517
6.30254
6.28975
6.27682
6.26377
6.25063
6.2374
6.2241
6.21074
6.19734
6.1839
6.17043
6.15694
6.14344
6.12994
6.11644
6.10295
6.08947
6.07601
6.06258
6.04917
6.0358
6.02247
6.00917
5.99592
5.98272
5.96957
5.95647
5.94343
5.93046
5.91754
5.90469
5.89191
5.8792
5.86656
5.854
5.84152
5.82912
5.8168
5.80456
5.79242
5.78037
5.76841
5.75655
5.74479
5.73314
5.72159
5.71015
5.69883
5.68761
5.6765
5.66549
5.65458
5.64377
5.63305
5.62243
5.6119
5.60147
5.59114
5.58091
5.57079
5.56078
5.55087
5.54108
5.5314
5.52184
5.51239
5.50308
5.49389
5.48484
5.47592
5.46713
5.45849
5.44999
5.44164
5.43345
5.4254
5.41752
5.4098
5.40225
5.39486
5.38765
5.38062
5.37378
5.36713
5.36066
5.3544
5.34835
5.3425
5.33687
5.33146
5.32628
5.32133
5.31662
5.31215
5.30794
5.30398
5.30028
5.29686
5.29372
5.29087
5.28832
5.28606
5.28413
5.28251
5.28123
5.28029
5.2797
5.27947
5.27961
5.28014
5.28106
5.28239
5.28413
5.28631
5.28893
5.29201
5.29556
5.29959
5.30412
5.30917
5.31474
5.32086
5.32754
5.33481
5.34266
5.35113
5.36024
5.36999
5.38042
5.39154
5.40337
5.41594
5.42927
5.44339
5.4583
5.47405
5.49066
5.50815
5.52655
5.54589
5.5662
5.58751
5.60985
5.63325
5.65775
5.68338
5.71018
5.73818
5.76742
5.79793
5.82977
5.86297
5.89757
5.93361
5.97115
6.01023
6.05089
6.09319
6.13717
6.1829
6.23042
6.27979
6.33107
6.38431
6.43958
6.49695
6.55648
6.61823
6.68227
6.74869
6.81755
6.88892
6.96289
7.03955
7.11896
7.20122
7.28642
7.37465
7.46601
7.56059
7.65849
7.75981
7.86467
7.97317
8.08543
8.20157
8.32169
8.44594
8.57443
8.7073
8.84468
8.98672
9.13355
9.28532
9.4422
9.60432
9.77186
9.94497
10.1238
10.3086
10.4995
10.6967
10.9001
11.1107
11.3267
11.5531
11.7785
12.0303
12.2483
12.4863
12.7889
13.0613
13.3386
13.6293
13.9288
14.2371
14.5553
14.8836
15.2223
15.5717
15.9323
16.3041
16.6882
17.0831
17.4904
17.9118
18.3464
18.7946
19.257
19.7339
20.2259
20.7333
21.2566
21.7963
22.353
22.927
23.5192
24.1297
24.7595
25.4089
26.0787
26.7693
27.4817
28.2162
28.9738
29.7552
30.5609
31.3916
32.2493
33.1328
34.0444
34.985
35.9546
36.9552
37.987
39.052
40.1492
41.2834
42.4508
43.6574
44.8999
46.1826
47.5074
48.8748
50.2861
51.743
53.247
54.7997
56.4029
58.0582
59.7677
61.5331
63.3566
65.2402
67.1862
69.1967
71.274
73.4205
75.6391
77.9324
80.3034
82.7548
85.2898
87.9114
90.6229
93.4277
96.3292
99.3311
102.437
105.65
108.975
112.415
115.974
119.654
123.459
127.392
131.452
135.642
139.958
144.396
148.948
153.6
158.333
163.112
167.902
172.627
177.24
181.57
185.666
188.908
193.493
194.669
196.755
197.638
197.666
196.451
193.784
189.327
182.783
174.111
163.049
149.174
132.574
113.816
92.5569
68.4693
42.6557
16.4253
-12.6015
-45.5195
-69.4675
-81.5181
-101.415
-120.867
-137.349
-152.598
-168.961
-180.577
-189.825
-208.634
-230.219
-250.075
-264.366
-274.613
-285.064
-296.861
-307.786
-316.881
-324.807
-332.276
-339.328
-345.587
-350.906
-355.735
-360.483
-365.134
-369.56
-373.801
-377.839
-381.677
-385.363
-388.97
-392.488
-395.838
-399.012
-402.149
-405.361
-408.706
-412.376
-416.248
-419.825
-422.912
-426.02
-429.514
-433.018
-436.049
-438.726
-441.608
-444.868
-447.902
-450.275
-452.464
-455.06
-457.886
-460.255
-462.002
-463.892
-466.477
-468.97
-470.413
-471.243
-472.756
-475.211
-477.216
-477.972
-478.303
-478.82
-479.427
-479.942
-480.378
-480.685
-480.831
-480.683
-480.036
-479.143
-478.545
-478.16
-477.059
-474.796
-472.339
-470.541
-468.558
-465.247
-460.562
-455.147
-449.118
-442.146
-434.161
-424.993
-414.793
-402.689
-386.753
-366.117
-343.101
-319.115
-291.247
-250.563
-236.989
-231.555
-229.712
-228.048
-227.068
-226.421
-225.934
-225.504
-225.408
-225.319
-225.226
-225.196
-225.245
-225.377
-225.528
-225.682
-225.859
-226.065
-226.288
-226.526
-226.773
-227.031
-227.299
-227.587
-227.888
-228.212
-228.524
-228.804
-229.092
-229.393
-229.647
-229.852
-230.037
-230.192
-230.313
-230.373
-230.334
-230.222
-230.037
-229.785
-229.457
-229.016
-228.464
-227.771
-226.973
-226.105
-225.098
-223.935
-222.7
-221.406
-220.064
-218.691
-217.337
-215.974
-214.58
-213.212
-211.841
-209.913
-207.623
-205.266
-202.668
-199.075
-196.875
-194.071
-191.136
-187.956
-184.717
-181.349
-177.919
-174.404
-170.834
-167.203
-163.529
-159.814
-156.068
-152.297
-148.511
-144.715
-140.917
-137.123
-133.341
-129.576
-125.835
-122.123
-118.446
-114.811
-111.22
-107.681
-104.197
-100.772
-97.4106
-94.1163
-90.8923
-87.7416
-84.6667
-81.6702
-78.7539
-75.9196
-73.1689
-70.5028
-67.9221
-65.4274
-63.0191
-60.6973
-58.4617
-56.3121
-54.2479
-52.2684
-50.3726
-48.5597
-46.8283
-45.1772
-43.605
-42.1104
-40.6916
-39.3473
-38.0756
-36.8748
-35.7431
-34.6786
-33.6795
-32.7439
-31.8696
-31.055
-30.298
-29.5967
-28.9493
-28.3541
-27.809
-27.3126
-26.8629
-26.4583
-26.0971
-25.7777
-25.4985
-25.2579
-25.0545
-24.8867
-24.7532
-24.6526
-24.5835
-24.5447
-24.5348
-24.5526
-24.5969
-24.6664
-24.7596
-24.8753
-25.012
-25.1679
-25.3414
-25.5299
-25.7316
-25.9418
-26.1586
-26.3725
-26.5821
-26.7635
-26.9333
-27.0033
-27.0648
-26.787
-26.6728
-24.9833
-25.4044
6.85131
7.2946
6.78835
6.63003
6.54963
6.48347
6.45012
6.43686
6.43389
6.43666
6.44153
6.44614
6.44936
6.45076
6.45024
6.44791
6.44395
6.43855
6.43193
6.42425
6.41569
6.40638
6.39643
6.38593
6.37497
6.36362
6.35193
6.33994
6.32771
6.31526
6.30263
6.28983
6.2769
6.26385
6.2507
6.23747
6.22417
6.21081
6.1974
6.18396
6.17048
6.157
6.14349
6.12999
6.11649
6.10299
6.08951
6.07605
6.06262
6.04921
6.03583
6.0225
6.0092
5.99595
5.98275
5.9696
5.9565
5.94346
5.93048
5.91756
5.90471
5.89193
5.87922
5.86658
5.85402
5.84154
5.82913
5.81681
5.80458
5.79243
5.78038
5.76842
5.75656
5.74481
5.73315
5.7216
5.71017
5.69884
5.68762
5.67651
5.6655
5.65459
5.64378
5.63306
5.62244
5.61191
5.60148
5.59115
5.58092
5.5708
5.56079
5.55088
5.54109
5.53141
5.52184
5.5124
5.50309
5.4939
5.48485
5.47593
5.46714
5.4585
5.45
5.44165
5.43346
5.42541
5.41753
5.40981
5.40225
5.39487
5.38766
5.38063
5.37379
5.36714
5.36067
5.35441
5.34836
5.34251
5.33688
5.33147
5.32629
5.32134
5.31663
5.31216
5.30795
5.30399
5.3003
5.29688
5.29374
5.29088
5.28833
5.28608
5.28414
5.28253
5.28124
5.2803
5.27971
5.27948
5.27963
5.28016
5.28108
5.2824
5.28415
5.28633
5.28895
5.29203
5.29557
5.29961
5.30414
5.30919
5.31476
5.32088
5.32757
5.33483
5.34268
5.35116
5.36026
5.37002
5.38044
5.39156
5.4034
5.41597
5.4293
5.44341
5.45833
5.47408
5.49069
5.50818
5.52658
5.54592
5.56623
5.58754
5.60988
5.63329
5.65779
5.68342
5.71022
5.73822
5.76746
5.79797
5.82981
5.86301
5.89761
5.93366
5.9712
6.01027
6.05094
6.09324
6.13722
6.18295
6.23047
6.27984
6.33112
6.38437
6.43964
6.49701
6.55654
6.61829
6.68234
6.74876
6.81762
6.88899
6.96297
7.03962
7.11904
7.2013
7.2865
7.37474
7.46609
7.56067
7.65858
7.75991
7.86477
7.97327
8.08553
8.20167
8.3218
8.44605
8.57454
8.70741
8.8448
8.98684
9.13367
9.28545
9.44233
9.60446
9.772
9.94512
10.124
10.3088
10.4996
10.6968
10.9002
11.1109
11.3269
11.5533
11.7787
12.0305
12.2484
12.4865
12.7892
13.0615
13.3388
13.6295
13.929
14.2373
14.5555
14.8838
15.2226
15.572
15.9326
16.3044
16.6885
17.0834
17.4907
17.9121
18.3467
18.7949
19.2574
19.7342
20.2262
20.7336
21.2569
21.7967
22.3533
22.9274
23.5196
24.1301
24.7599
25.4093
26.0791
26.7698
27.4821
28.2167
28.9743
29.7557
30.5614
31.3922
32.2498
33.1334
34.0449
34.9856
35.9552
36.9558
37.9876
39.0527
40.1499
41.2841
42.4515
43.6582
44.9006
46.1834
47.5082
48.8756
50.287
51.7439
53.2479
54.8006
56.4038
58.0592
59.7687
61.5342
63.3577
65.2413
67.1873
69.1979
71.2752
73.4217
75.6403
77.9338
80.3048
82.7563
85.2913
87.9129
90.6244
93.4293
96.3309
99.3328
102.439
105.652
108.977
112.417
115.976
119.656
123.462
127.394
131.455
135.644
139.96
144.399
148.951
153.603
158.336
163.116
167.905
172.631
177.243
181.573
185.669
188.911
193.497
194.669
196.755
197.632
197.652
196.424
193.742
189.266
182.703
174.009
162.923
149.026
132.409
113.637
92.3641
68.2743
42.4695
16.2393
-12.7752
-45.6024
-69.4715
-81.5679
-101.476
-120.906
-137.378
-152.628
-168.969
-180.589
-189.892
-208.71
-230.26
-250.066
-264.334
-274.59
-285.052
-296.843
-307.758
-316.848
-324.775
-332.244
-339.294
-345.552
-350.873
-355.704
-360.454
-365.106
-369.533
-373.774
-377.813
-381.652
-385.338
-388.946
-392.464
-395.815
-398.989
-402.128
-405.342
-408.689
-412.357
-416.227
-419.803
-422.89
-426
-429.493
-432.995
-436.026
-438.704
-441.586
-444.844
-447.876
-450.25
-452.441
-455.036
-457.86
-460.228
-461.976
-463.868
-466.45
-468.939
-470.383
-471.218
-472.731
-475.181
-477.182
-477.939
-478.273
-478.79
-479.397
-479.911
-480.347
-480.653
-480.797
-480.648
-480.002
-479.111
-478.511
-478.122
-477.02
-474.76
-472.304
-470.502
-468.514
-465.203
-460.52
-455.106
-449.079
-442.107
-434.124
-424.958
-414.756
-402.653
-386.729
-366.113
-343.106
-319.111
-291.299
-250.649
-237.042
-231.577
-229.725
-228.059
-227.076
-226.426
-225.939
-225.507
-225.409
-225.32
-225.227
-225.196
-225.244
-225.376
-225.527
-225.681
-225.857
-226.063
-226.287
-226.525
-226.772
-227.03
-227.299
-227.587
-227.888
-228.212
-228.524
-228.805
-229.093
-229.394
-229.648
-229.853
-230.039
-230.194
-230.315
-230.374
-230.336
-230.225
-230.04
-229.788
-229.46
-229.019
-228.467
-227.774
-226.977
-226.109
-225.103
-223.941
-222.707
-221.414
-220.072
-218.699
-217.345
-215.982
-214.587
-213.217
-211.843
-209.913
-207.624
-205.265
-202.668
-199.084
-196.879
-194.072
-191.138
-187.958
-184.719
-181.351
-177.921
-174.407
-170.837
-167.207
-163.533
-159.817
-156.072
-152.301
-148.515
-144.719
-140.921
-137.128
-133.346
-129.581
-125.84
-122.129
-118.452
-114.817
-111.227
-107.687
-104.203
-100.778
-97.4172
-94.123
-90.8991
-87.7484
-84.6736
-81.677
-78.7608
-75.9266
-73.1758
-70.5097
-67.929
-65.4343
-63.0259
-60.704
-58.4684
-56.3188
-54.2545
-52.2749
-50.3791
-48.566
-46.8345
-45.1834
-43.6111
-42.1163
-40.6975
-39.353
-38.0811
-36.8802
-35.7484
-34.6839
-33.6846
-32.7488
-31.8745
-31.0597
-30.3026
-29.6012
-28.9537
-28.3583
-27.8131
-27.3166
-26.8667
-26.462
-26.1007
-25.7812
-25.5019
-25.2613
-25.0577
-24.8899
-24.7562
-24.6555
-24.5863
-24.5474
-24.5375
-24.5552
-24.5994
-24.6688
-24.762
-24.8776
-25.0142
-25.17
-25.3434
-25.5319
-25.7335
-25.9436
-26.1603
-26.3741
-26.5836
-26.7649
-26.9346
-27.0044
-27.0658
-26.7874
-26.6737
-24.9811
-25.4006
6.83615
7.28141
6.79094
6.63148
6.55093
6.48485
6.45151
6.43814
6.435
6.43759
6.44229
6.44675
6.44986
6.45116
6.45058
6.4482
6.44419
6.43877
6.43212
6.42444
6.41586
6.40654
6.39658
6.38608
6.37511
6.36375
6.35206
6.34007
6.32783
6.31538
6.30274
6.28994
6.277
6.26395
6.2508
6.23756
6.22425
6.21089
6.19748
6.18403
6.17056
6.15706
6.14356
6.13005
6.11655
6.10305
6.08957
6.0761
6.06267
6.04926
6.03588
6.02254
6.00924
5.99599
5.98279
5.96963
5.95653
5.94349
5.93051
5.91759
5.90474
5.89196
5.87925
5.86661
5.85404
5.84156
5.82916
5.81683
5.8046
5.79246
5.7804
5.76844
5.75658
5.74482
5.73317
5.72162
5.71018
5.69885
5.68764
5.67652
5.66552
5.65461
5.64379
5.63307
5.62245
5.61192
5.60149
5.59116
5.58094
5.57082
5.5608
5.55089
5.5411
5.53142
5.52186
5.51242
5.5031
5.49391
5.48486
5.47594
5.46715
5.45851
5.45002
5.44167
5.43347
5.42543
5.41754
5.40982
5.40227
5.39488
5.38768
5.38065
5.3738
5.36715
5.36069
5.35443
5.34837
5.34253
5.3369
5.33149
5.32631
5.32136
5.31664
5.31218
5.30796
5.30401
5.30031
5.29689
5.29375
5.2909
5.28835
5.28609
5.28416
5.28254
5.28126
5.28032
5.27973
5.2795
5.27965
5.28018
5.2811
5.28243
5.28417
5.28635
5.28897
5.29205
5.2956
5.29963
5.30416
5.30921
5.31479
5.32091
5.32759
5.33485
5.34271
5.35118
5.36029
5.37005
5.38047
5.3916
5.40343
5.416
5.42934
5.44345
5.45837
5.47412
5.49073
5.50822
5.52662
5.54596
5.56627
5.58759
5.60993
5.63333
5.65783
5.68347
5.71026
5.73827
5.76751
5.79803
5.82986
5.86306
5.89767
5.93371
5.97125
6.01033
6.051
6.0933
6.13729
6.18302
6.23054
6.27991
6.33119
6.38444
6.43972
6.49709
6.55662
6.61837
6.68242
6.74884
6.8177
6.88908
6.96306
7.03972
7.11914
7.2014
7.28661
7.37484
7.46621
7.56079
7.65869
7.76002
7.86489
7.9734
8.08566
8.2018
8.32194
8.44619
8.57469
8.70756
8.84495
8.987
9.13384
9.28562
9.4425
9.60464
9.77218
9.94531
10.1242
10.309
10.4998
10.697
10.9005
11.1111
11.3271
11.5535
11.7789
12.0308
12.2486
12.4867
12.7896
13.0618
13.3391
13.6298
13.9293
14.2376
14.5558
14.8841
15.2229
15.5723
15.933
16.3047
16.6889
17.0838
17.4911
17.9125
18.3471
18.7953
19.2578
19.7346
20.2267
20.7341
21.2574
21.7971
22.3538
22.9279
23.5201
24.1306
24.7604
25.4099
26.0797
26.7704
27.4827
28.2173
28.9749
29.7564
30.5621
31.3928
32.2505
33.1341
34.0457
34.9864
35.956
36.9566
37.9884
39.0535
40.1508
41.285
42.4524
43.6591
44.9016
46.1844
47.5092
48.8766
50.288
51.745
53.249
54.8018
56.405
58.0604
59.7699
61.5354
63.359
65.2427
67.1887
69.1993
71.2767
73.4233
75.6419
77.9354
80.3065
82.758
85.2931
87.9148
90.6264
93.4313
96.333
99.335
102.441
105.655
108.98
112.42
115.979
119.659
123.465
127.397
131.458
135.648
139.964
144.402
148.955
153.608
158.34
163.121
167.91
172.636
177.249
181.578
185.674
188.915
193.499
194.667
196.752
197.622
197.632
196.391
193.693
189.197
182.613
173.897
162.787
148.87
132.238
113.451
92.1675
68.0787
42.2854
16.0574
-12.9384
-45.6633
-69.4539
-81.6068
-101.523
-120.929
-137.392
-152.645
-168.963
-180.593
-189.956
-208.778
-230.287
-250.04
-264.285
-274.554
-285.027
-296.812
-307.716
-316.802
-324.731
-332.2
-339.249
-345.505
-350.829
-355.664
-360.417
-365.07
-369.498
-373.74
-377.779
-381.62
-385.307
-388.915
-392.434
-395.785
-398.962
-402.102
-405.318
-408.666
-412.334
-416.201
-419.775
-422.864
-425.975
-429.467
-432.966
-435.996
-438.677
-441.56
-444.815
-447.844
-450.22
-452.413
-455.007
-457.828
-460.194
-461.946
-463.84
-466.418
-468.902
-470.347
-471.187
-472.702
-475.145
-477.141
-477.9
-478.236