/*--------------------------------*- C++ -*----------------------------------*\
  =========                 |
  \\      /  F ield         | OpenFOAM: The Open Source CFD Toolbox
   \\    /   O peration     | Website:  https://openfoam.org
    \\  /    A nd           | Version:  7
     \\/     M anipulation  |
\*---------------------------------------------------------------------------*/
FoamFile
{
    version     2.0;
    format      ascii;
    class       surfaceScalarField;
    location    "2000";
    object      phi;
}
// * * * * * * * * * * * * * * * * * * * * * * * * * * * * * * * * * * * * * //

dimensions      [0 3 -1 0 0 0 0];

internalField   nonuniform List<scalar> 
102547
(
4.44218e-05
-1.54119e-06
4.3721e-05
7.0081e-07
4.26742e-05
1.04681e-06
4.17501e-05
9.24095e-07
4.10407e-05
7.09395e-07
4.05215e-05
5.19202e-07
4.01511e-05
3.70372e-07
3.98929e-05
2.58218e-07
3.97151e-05
1.77861e-07
3.95919e-05
1.23187e-07
3.9504e-05
8.79106e-08
3.94378e-05
6.61229e-08
3.93848e-05
5.30564e-08
3.93394e-05
4.53607e-08
3.92986e-05
4.08372e-08
3.92605e-05
3.81105e-08
3.92241e-05
3.63508e-08
3.91891e-05
3.50662e-08
3.91551e-05
3.39801e-08
3.91221e-05
3.29509e-08
3.90902e-05
3.19077e-08
3.90594e-05
3.08216e-08
3.90297e-05
2.96878e-08
3.90012e-05
2.85148e-08
3.89739e-05
2.73156e-08
3.89478e-05
2.61042e-08
3.89229e-05
2.48934e-08
3.88992e-05
2.3695e-08
3.88767e-05
2.25185e-08
3.88553e-05
2.13719e-08
3.8835e-05
2.0261e-08
3.88158e-05
1.91906e-08
3.87977e-05
1.81634e-08
3.87805e-05
1.71811e-08
3.87643e-05
1.62445e-08
3.87489e-05
1.53539e-08
3.87344e-05
1.45091e-08
3.87207e-05
1.37092e-08
3.87077e-05
1.2953e-08
3.86955e-05
1.22392e-08
3.86839e-05
1.15663e-08
3.8673e-05
1.09324e-08
3.86627e-05
1.03358e-08
3.86529e-05
9.77489e-09
3.86436e-05
9.24783e-09
3.86349e-05
8.75289e-09
3.86266e-05
8.28833e-09
3.86187e-05
7.85248e-09
3.86113e-05
7.4437e-09
3.86042e-05
7.06055e-09
3.85975e-05
6.7016e-09
3.85912e-05
6.36539e-09
3.85851e-05
6.05055e-09
3.85794e-05
5.75585e-09
3.85739e-05
5.48009e-09
3.85687e-05
5.22216e-09
3.85637e-05
4.98102e-09
3.85589e-05
4.75567e-09
3.85544e-05
4.5452e-09
3.855e-05
4.3487e-09
3.85459e-05
4.16529e-09
3.85419e-05
3.99424e-09
3.8538e-05
3.83483e-09
3.85343e-05
3.68636e-09
3.85308e-05
3.54845e-09
3.85274e-05
3.42051e-09
3.85241e-05
3.30189e-09
3.85209e-05
3.19189e-09
3.85178e-05
3.09014e-09
3.85148e-05
2.99631e-09
3.85119e-05
2.90998e-09
3.85091e-05
2.83076e-09
3.85063e-05
2.75818e-09
3.85036e-05
2.69174e-09
3.8501e-05
2.63104e-09
3.84984e-05
2.57512e-09
3.84959e-05
2.52286e-09
3.84934e-05
2.4734e-09
3.8491e-05
2.42592e-09
3.84886e-05
2.38077e-09
3.84863e-05
2.33847e-09
3.8484e-05
2.29941e-09
3.84817e-05
2.26508e-09
3.84795e-05
2.23477e-09
3.84773e-05
2.20836e-09
3.84751e-05
2.18623e-09
3.84729e-05
2.16789e-09
3.84707e-05
2.15247e-09
3.84686e-05
2.13944e-09
3.84665e-05
2.12859e-09
3.84644e-05
2.12036e-09
3.84622e-05
2.11515e-09
3.84601e-05
2.1128e-09
3.8458e-05
2.1129e-09
3.84559e-05
2.11526e-09
3.84538e-05
2.11974e-09
3.84517e-05
2.12615e-09
3.84495e-05
2.13438e-09
3.84474e-05
2.14428e-09
3.84452e-05
2.15555e-09
3.84431e-05
2.16834e-09
3.84409e-05
2.1831e-09
3.84387e-05
2.19978e-09
3.84365e-05
2.21814e-09
3.84342e-05
2.23798e-09
3.8432e-05
2.25916e-09
3.84297e-05
2.28172e-09
3.84274e-05
2.30541e-09
3.8425e-05
2.33047e-09
3.84227e-05
2.35714e-09
3.84203e-05
2.38549e-09
3.84179e-05
2.41533e-09
3.84154e-05
2.44666e-09
3.8413e-05
2.47984e-09
3.84104e-05
2.51493e-09
3.84079e-05
2.55154e-09
3.84053e-05
2.58959e-09
3.84027e-05
2.62896e-09
3.84e-05
2.66974e-09
3.83973e-05
2.712e-09
3.83945e-05
2.75569e-09
3.83917e-05
2.80083e-09
3.83889e-05
2.84759e-09
3.8386e-05
2.89601e-09
3.8383e-05
2.94642e-09
3.838e-05
2.99887e-09
3.8377e-05
3.05312e-09
3.83739e-05
3.10914e-09
3.83707e-05
3.16692e-09
3.83675e-05
3.22638e-09
3.83642e-05
3.28756e-09
3.83608e-05
3.35049e-09
3.83574e-05
3.41536e-09
3.83539e-05
3.48217e-09
3.83504e-05
3.55098e-09
3.83468e-05
3.62185e-09
3.83431e-05
3.6949e-09
3.83393e-05
3.77024e-09
3.83355e-05
3.84795e-09
3.83315e-05
3.92804e-09
3.83275e-05
4.01056e-09
3.83234e-05
4.09547e-09
3.83192e-05
4.18269e-09
3.8315e-05
4.27229e-09
3.83106e-05
4.36431e-09
3.83062e-05
4.45852e-09
3.83016e-05
4.55499e-09
3.82969e-05
4.65374e-09
3.82922e-05
4.75484e-09
3.82873e-05
4.85833e-09
3.82824e-05
4.96434e-09
3.82773e-05
5.07302e-09
3.82721e-05
5.18453e-09
3.82668e-05
5.29896e-09
3.82614e-05
5.41651e-09
3.82559e-05
5.53739e-09
3.82502e-05
5.66161e-09
3.82444e-05
5.78924e-09
3.82385e-05
5.92043e-09
3.82324e-05
6.05517e-09
3.82262e-05
6.19347e-09
3.82199e-05
6.33526e-09
3.82134e-05
6.48063e-09
3.82068e-05
6.62984e-09
3.82e-05
6.78313e-09
3.81931e-05
6.94057e-09
3.8186e-05
7.10224e-09
3.81787e-05
7.26825e-09
3.81713e-05
7.43875e-09
3.81636e-05
7.61387e-09
3.81558e-05
7.79374e-09
3.81479e-05
7.97854e-09
3.81397e-05
8.16851e-09
3.81313e-05
8.36373e-09
3.81228e-05
8.56432e-09
3.8114e-05
8.77043e-09
3.8105e-05
8.98223e-09
3.80958e-05
9.1999e-09
3.80864e-05
9.42366e-09
3.80767e-05
9.65375e-09
3.80669e-05
9.89041e-09
3.80567e-05
1.01339e-08
3.80463e-05
1.03843e-08
3.80357e-05
1.0642e-08
3.80248e-05
1.0907e-08
3.80136e-05
1.11797e-08
3.80021e-05
1.14603e-08
3.79904e-05
1.17489e-08
3.79784e-05
1.20459e-08
3.7966e-05
1.23516e-08
3.79533e-05
1.26662e-08
3.79403e-05
1.29902e-08
3.7927e-05
1.33237e-08
3.79134e-05
1.36671e-08
3.78993e-05
1.40208e-08
3.78849e-05
1.43849e-08
3.78702e-05
1.47599e-08
3.7855e-05
1.51461e-08
3.78395e-05
1.55438e-08
3.78235e-05
1.59535e-08
3.78072e-05
1.63754e-08
3.77904e-05
1.681e-08
3.77731e-05
1.72577e-08
3.77554e-05
1.77188e-08
3.77372e-05
1.81938e-08
3.77185e-05
1.86832e-08
3.76993e-05
1.91873e-08
3.76796e-05
1.97067e-08
3.76594e-05
2.02418e-08
3.76386e-05
2.07932e-08
3.76172e-05
2.13612e-08
3.75953e-05
2.19466e-08
3.75727e-05
2.25497e-08
3.75495e-05
2.31711e-08
3.75257e-05
2.38114e-08
3.75013e-05
2.44712e-08
3.74761e-05
2.51511e-08
3.74503e-05
2.58516e-08
3.74237e-05
2.65734e-08
3.73964e-05
2.7317e-08
3.73683e-05
2.80832e-08
3.73394e-05
2.88725e-08
3.73097e-05
2.96855e-08
3.72792e-05
3.05228e-08
3.72478e-05
3.13851e-08
3.72155e-05
3.22727e-08
3.71824e-05
3.31869e-08
3.71482e-05
3.41259e-08
3.71131e-05
3.50953e-08
3.70771e-05
3.60819e-08
3.70399e-05
3.71186e-08
3.70018e-05
3.8122e-08
3.69625e-05
3.92938e-08
3.69224e-05
4.01342e-08
3.68806e-05
4.18313e-08
3.68391e-05
4.15061e-08
3.67929e-05
4.61335e-08
3.67643e-05
2.86589e-08
3.66905e-05
7.37126e-08
3.65802e-05
1.10366e-07
3.65026e-05
7.75484e-08
3.64207e-05
8.1949e-08
3.63332e-05
8.74486e-08
3.62443e-05
8.89654e-08
3.61538e-05
9.04692e-08
3.60616e-05
9.21732e-08
3.59679e-05
9.37445e-08
3.58726e-05
9.52776e-08
3.57758e-05
9.68338e-08
3.56773e-05
9.84661e-08
3.55772e-05
1.00086e-07
3.54753e-05
1.01909e-07
3.53719e-05
1.03402e-07
3.52632e-05
1.08737e-07
3.51471e-05
1.16122e-07
3.50242e-05
1.22833e-07
3.48946e-05
1.29629e-07
3.47581e-05
1.36458e-07
3.4615e-05
1.43101e-07
3.44651e-05
1.49941e-07
3.43089e-05
1.56226e-07
3.41466e-05
1.6226e-07
3.39786e-05
1.67993e-07
3.38052e-05
1.73384e-07
3.36268e-05
1.78435e-07
3.34436e-05
1.83185e-07
3.32561e-05
1.87548e-07
3.30642e-05
1.9187e-07
3.28686e-05
1.95575e-07
3.26696e-05
1.9898e-07
3.24677e-05
2.01957e-07
3.2263e-05
2.04677e-07
3.2056e-05
2.07041e-07
3.18467e-05
2.09239e-07
3.16357e-05
2.1097e-07
3.14235e-05
2.12226e-07
3.12098e-05
2.13749e-07
3.09946e-05
2.15222e-07
3.07794e-05
2.15189e-07
3.05629e-05
2.16496e-07
3.03456e-05
2.17307e-07
3.01282e-05
2.17396e-07
2.99099e-05
2.18265e-07
2.96912e-05
2.18739e-07
2.94717e-05
2.19414e-07
2.9252e-05
2.19714e-07
2.90301e-05
2.21885e-07
2.88081e-05
2.22019e-07
2.85811e-05
2.26998e-07
2.83511e-05
2.30038e-07
2.81146e-05
2.36478e-07
2.78713e-05
2.43332e-07
2.76213e-05
2.49957e-07
2.73644e-05
2.56932e-07
2.71001e-05
2.64301e-07
2.68281e-05
2.7198e-07
2.65481e-05
2.79983e-07
2.62598e-05
2.88337e-07
2.59627e-05
2.97053e-07
2.56566e-05
3.06147e-07
2.53409e-05
3.15656e-07
2.50153e-05
3.25593e-07
2.46793e-05
3.35992e-07
2.43325e-05
3.46897e-07
2.39741e-05
3.5831e-07
2.36031e-05
3.71089e-07
2.32179e-05
3.85166e-07
2.28185e-05
3.99337e-07
2.24049e-05
4.13602e-07
2.19766e-05
4.2839e-07
2.15326e-05
4.43955e-07
2.10722e-05
4.60407e-07
2.05944e-05
4.77788e-07
2.00982e-05
4.96194e-07
1.95825e-05
5.15691e-07
1.90462e-05
5.36357e-07
1.84878e-05
5.58332e-07
1.79061e-05
5.81685e-07
1.72996e-05
6.06551e-07
1.66665e-05
6.33075e-07
1.60052e-05
6.61356e-07
1.53136e-05
6.91582e-07
1.45897e-05
7.23855e-07
1.38314e-05
7.58334e-07
1.30363e-05
7.95121e-07
1.2202e-05
8.343e-07
1.13261e-05
8.75864e-07
1.04064e-05
9.19703e-07
9.44092e-06
9.65483e-07
8.42835e-06
1.01257e-06
7.36863e-06
1.05972e-06
6.26353e-06
1.1051e-06
5.11849e-06
1.14504e-06
3.94304e-06
1.17545e-06
2.75618e-06
1.18685e-06
1.58273e-06
1.17346e-06
4.68986e-07
1.11374e-06
-5.43269e-07
1.01226e-06
-1.51537e-06
9.72102e-07
-1.80379e-06
2.88415e-07
5.2192e-07
-2.32571e-06
1.71871e-06
-1.19679e-06
3.20156e-06
-1.48286e-06
4.9691e-06
-1.76753e-06
6.94251e-06
-1.97342e-06
9.07796e-06
-2.13545e-06
1.13868e-05
-2.30883e-06
1.38338e-05
-2.44701e-06
1.63349e-05
-2.50108e-06
1.8961e-05
-2.62612e-06
2.17957e-05
-2.83471e-06
2.47106e-05
-2.91488e-06
2.75695e-05
-2.85893e-06
3.05968e-05
-3.02734e-06
3.38416e-05
-3.24479e-06
3.68901e-05
-3.0485e-06
3.96599e-05
-2.76979e-06
4.3197e-05
-3.53702e-06
4.69527e-05
-3.75573e-06
4.69923e-05
-3.96459e-08
4.52346e-05
1.75768e-06
4.73581e-05
-2.12344e-06
4.8747e-05
-1.38892e-06
4.93366e-05
-5.89566e-07
5.00524e-05
-7.15871e-07
5.10233e-05
-9.70881e-07
5.04636e-05
5.59768e-07
5.05536e-05
-9.00104e-08
5.38438e-05
-3.29023e-06
5.66649e-05
-2.8211e-06
5.80497e-05
-1.38483e-06
5.76709e-05
3.78778e-07
5.69463e-05
7.24663e-07
5.71522e-05
-2.05898e-07
5.79244e-05
-7.72249e-07
5.82988e-05
-3.74371e-07
5.82357e-05
6.30815e-08
5.81217e-05
1.1406e-07
5.81291e-05
-7.44869e-09
5.81449e-05
-1.57991e-08
5.80182e-05
1.26736e-07
5.77782e-05
2.39978e-07
5.75997e-05
1.78524e-07
5.75386e-05
6.10297e-08
5.75129e-05
2.57132e-08
5.74681e-05
4.48208e-08
5.74169e-05
5.11645e-08
5.73509e-05
6.60433e-08
5.72754e-05
7.55353e-08
5.72074e-05
6.79319e-08
5.71589e-05
4.85599e-08
5.71089e-05
4.99354e-08
5.70327e-05
7.62152e-08
5.69475e-05
8.52601e-08
5.69003e-05
4.71426e-08
5.69068e-05
-6.49083e-09
5.69757e-05
-6.88584e-08
5.71297e-05
-1.54032e-07
5.72678e-05
-1.38145e-07
5.72543e-05
1.35233e-08
5.7144e-05
1.10319e-07
5.71419e-05
2.13425e-09
5.7265e-05
-1.23119e-07
5.73221e-05
-5.70978e-08
5.72256e-05
9.648e-08
5.71147e-05
1.10863e-07
5.71526e-05
-3.78667e-08
5.72716e-05
-1.19029e-07
5.72443e-05
2.73785e-08
5.70568e-05
1.87431e-07
5.69468e-05
1.10051e-07
5.70157e-05
-6.89736e-08
5.70846e-05
-6.88449e-08
5.69613e-05
1.233e-07
5.67449e-05
2.16403e-07
5.67165e-05
2.84194e-08
5.68741e-05
-1.57627e-07
5.68554e-05
1.8657e-08
5.65216e-05
3.33867e-07
5.62209e-05
3.00692e-07
5.62898e-05
-6.88932e-08
5.65233e-05
-2.33485e-07
5.6427e-05
9.62372e-08
5.60047e-05
4.22274e-07
5.56541e-05
3.50625e-07
5.54771e-05
1.76997e-07
5.53506e-05
1.26547e-07
5.5205e-05
1.45525e-07
5.50482e-05
1.56836e-07
5.48664e-05
1.81816e-07
5.46473e-05
2.19087e-07
5.43492e-05
2.9814e-07
5.39656e-05
3.83581e-07
5.36392e-05
3.26371e-07
5.34752e-05
1.64058e-07
5.32951e-05
1.80051e-07
5.28132e-05
4.8194e-07
5.21176e-05
6.95613e-07
5.16234e-05
4.9415e-07
5.13823e-05
2.41114e-07
5.09385e-05
4.43752e-07
5.00532e-05
8.85338e-07
4.89412e-05
1.11205e-06
4.78562e-05
1.08496e-06
4.67487e-05
1.10756e-06
4.5487e-05
1.26168e-06
4.40575e-05
1.42947e-06
4.24416e-05
1.61589e-06
4.06084e-05
1.83321e-06
3.81041e-05
2.50432e-06
3.44206e-05
3.68353e-06
2.98165e-05
4.60411e-06
2.51149e-05
4.70154e-06
1.92892e-05
5.82572e-06
8.19556e-06
1.10936e-05
-6.019e-06
1.42146e-05
-7.81532e-06
1.79632e-06
-6.02837e-06
-1.78695e-06
-3.97582e-06
-2.05255e-06
-2.88468e-06
-1.09115e-06
-2.26849e-06
-6.16197e-07
-1.88876e-06
-3.7973e-07
-1.69319e-06
-1.95576e-07
-1.55964e-06
-1.33555e-07
-1.43072e-06
-1.28922e-07
-1.429e-06
-1.71523e-09
-1.47033e-06
4.13279e-08
-1.49446e-06
2.41284e-08
-1.53212e-06
3.7658e-08
-1.60964e-06
7.75217e-08
-1.74135e-06
1.317e-07
-1.9012e-06
1.59854e-07
-2.0696e-06
1.68406e-07
-2.25542e-06
1.85809e-07
-2.46822e-06
2.12818e-07
-2.70495e-06
2.3671e-07
-2.96274e-06
2.57806e-07
-3.23799e-06
2.75239e-07
-3.52878e-06
2.90802e-07
-3.83511e-06
3.06317e-07
-4.16242e-06
3.27325e-07
-4.51335e-06
3.50913e-07
-4.89821e-06
3.8488e-07
-5.29948e-06
4.01249e-07
-5.69494e-06
3.95488e-07
-6.10857e-06
4.13604e-07
-6.56222e-06
4.53673e-07
-7.02225e-06
4.59998e-07
-7.47169e-06
4.49472e-07
-7.93115e-06
4.5943e-07
-8.40746e-06
4.76349e-07
-8.90667e-06
4.99165e-07
-9.41751e-06
5.10889e-07
-9.91082e-06
4.93265e-07
-1.03932e-05
4.82441e-07
-1.08721e-05
4.78852e-07
-1.13576e-05
4.85504e-07
-1.18551e-05
4.97524e-07
-1.23456e-05
4.90464e-07
-1.28225e-05
4.76889e-07
-1.3262e-05
4.39514e-07
-1.36778e-05
4.15822e-07
-1.41051e-05
4.27284e-07
-1.4507e-05
4.01864e-07
-1.48404e-05
3.33454e-07
-1.51361e-05
2.95693e-07
-1.54094e-05
2.73291e-07
-1.56599e-05
2.50433e-07
-1.58931e-05
2.33276e-07
-1.61483e-05
2.55207e-07
-1.64304e-05
2.82146e-07
-1.67425e-05
3.12018e-07
-1.71738e-05
4.31349e-07
-1.78038e-05
6.30003e-07
-1.82874e-05
4.83662e-07
-1.85749e-05
2.87424e-07
-1.88757e-05
3.00893e-07
-1.91248e-05
2.48992e-07
-1.86474e-05
-4.77334e-07
-1.88131e-05
1.65632e-07
-1.90062e-05
1.93172e-07
-1.91025e-05
9.62667e-08
-1.90898e-05
-1.27193e-08
-1.90415e-05
-4.83856e-08
-1.89431e-05
-9.83224e-08
-1.88141e-05
-1.2906e-07
-1.8648e-05
-1.66046e-07
-1.84521e-05
-1.95966e-07
-1.82241e-05
-2.27909e-07
-1.79673e-05
-2.56883e-07
-1.76812e-05
-2.86101e-07
-1.73675e-05
-3.13694e-07
-1.70268e-05
-3.40648e-07
-1.66606e-05
-3.6627e-07
-1.62697e-05
-3.90865e-07
-1.58554e-05
-4.14285e-07
-1.54188e-05
-4.36631e-07
-1.49609e-05
-4.57929e-07
-1.44827e-05
-4.78177e-07
-1.39853e-05
-4.97397e-07
-1.34698e-05
-5.15525e-07
-1.29372e-05
-5.32544e-07
-1.23888e-05
-5.48405e-07
-1.18257e-05
-5.63072e-07
-1.12492e-05
-5.76552e-07
-1.06604e-05
-5.88805e-07
-1.00605e-05
-5.9989e-07
-9.45074e-06
-6.09756e-07
-8.83226e-06
-6.18504e-07
-8.20619e-06
-6.26053e-07
-7.57367e-06
-6.32537e-07
-6.9358e-06
-6.37847e-07
-6.29369e-06
-6.42139e-07
-5.6484e-06
-6.45269e-07
-5.001e-06
-6.47429e-07
-4.35251e-06
-6.48469e-07
-3.70393e-06
-6.48618e-07
-3.05616e-06
-6.4773e-07
-2.41013e-06
-6.46066e-07
-1.76666e-06
-6.43437e-07
-1.12656e-06
-6.40132e-07
-4.9058e-07
-6.35944e-07
1.40563e-07
-6.31177e-07
7.66256e-07
-6.25661e-07
1.38582e-06
-6.19599e-07
1.99872e-06
-6.12867e-07
2.60446e-06
-6.05772e-07
3.20258e-06
-5.98091e-07
3.79269e-06
-5.90143e-07
4.37445e-06
-5.81719e-07
4.9475e-06
-5.73091e-07
5.51156e-06
-5.64026e-07
6.06631e-06
-5.54784e-07
6.61148e-06
-5.45138e-07
7.14681e-06
-5.35366e-07
7.67211e-06
-5.25261e-07
8.18718e-06
-5.15107e-07
8.69193e-06
-5.04715e-07
9.18626e-06
-4.9436e-07
9.67015e-06
-4.8386e-07
1.01436e-05
-4.73479e-07
1.06067e-05
-4.63034e-07
1.10594e-05
-4.52767e-07
1.15019e-05
-4.42499e-07
1.19343e-05
-4.32435e-07
1.23568e-05
-4.22397e-07
1.27693e-05
-4.12565e-07
1.31721e-05
-4.02774e-07
1.35653e-05
-3.93192e-07
1.3949e-05
-3.83668e-07
1.43233e-05
-3.74369e-07
1.46885e-05
-3.6515e-07
1.50446e-05
-3.56178e-07
1.5392e-05
-3.47317e-07
1.57307e-05
-3.38723e-07
1.6061e-05
-3.3026e-07
1.6383e-05
-3.22067e-07
1.6697e-05
-3.14004e-07
1.70032e-05
-3.06189e-07
1.73017e-05
-2.9848e-07
1.75927e-05
-2.90978e-07
1.78762e-05
-2.83533e-07
1.81524e-05
-2.76228e-07
1.84213e-05
-2.68888e-07
1.86829e-05
-2.61583e-07
1.8937e-05
-2.5407e-07
1.91834e-05
-2.46428e-07
1.94216e-05
-2.3823e-07
1.96513e-05
-2.2965e-07
1.9871e-05
-2.19765e-07
2.00802e-05
-2.09145e-07
2.02759e-05
-1.95714e-07
2.04601e-05
-1.84247e-07
2.06333e-05
-1.73154e-07
2.07974e-05
-1.64096e-07
2.09266e-05
-1.29228e-07
2.10265e-05
-9.98498e-08
2.10126e-05
1.39067e-08
2.08948e-05
1.17731e-07
2.03549e-05
5.39895e-07
1.88209e-05
1.534e-06
4.63383e-06
0.000145202
-4.08307e-06
0.000145235
6.67342e-07
0.000142278
4.00381e-06
0.000139348
3.8544e-06
0.000137087
2.96963e-06
0.000135436
2.17105e-06
0.000134251
1.55526e-06
0.000133418
1.09065e-06
0.000132841
7.54999e-07
0.000132439
5.25728e-07
0.000132149
3.77113e-07
0.000131931
2.84623e-07
0.000131755
2.28649e-07
0.000131605
1.95324e-07
0.000131471
1.75482e-07
0.000131345
1.63353e-07
0.000131226
1.55428e-07
0.000131112
1.4962e-07
0.000131001
1.44745e-07
0.000130894
1.40179e-07
0.00013079
1.35608e-07
0.00013069
1.30898e-07
0.000130594
1.26019e-07
0.000130501
1.20996e-07
0.000130413
1.15879e-07
0.000130328
1.10721e-07
0.000130247
1.05575e-07
0.000130171
1.00487e-07
0.000130098
9.54955e-08
0.000130028
9.06329e-08
0.000129963
8.59233e-08
0.000129901
8.13856e-08
0.000129842
7.70315e-08
0.000129786
7.28675e-08
0.000129733
6.88975e-08
0.000129684
6.51224e-08
0.000129637
6.15405e-08
0.000129592
5.81486e-08
0.00012955
5.49418e-08
0.00012951
5.19142e-08
0.000129473
4.90594e-08
0.000129437
4.637e-08
0.000129404
4.38385e-08
0.000129372
4.14579e-08
0.000129342
3.92206e-08
0.000129314
3.71192e-08
0.000129287
3.51466e-08
0.000129262
3.32956e-08
0.000129238
3.15593e-08
0.000129215
2.99316e-08
0.000129193
2.84063e-08
0.000129172
2.69775e-08
0.000129153
2.56393e-08
0.000129134
2.43865e-08
0.000129116
2.3214e-08
0.000129099
2.21172e-08
0.000129083
2.10915e-08
0.000129068
2.01328e-08
0.000129053
1.92373e-08
0.000129039
1.84009e-08
0.000129026
1.76202e-08
0.000129013
1.6892e-08
0.000129001
1.62131e-08
0.000128989
1.55806e-08
0.000128977
1.49927e-08
0.000128966
1.44469e-08
0.000128956
1.39406e-08
0.000128945
1.3471e-08
0.000128935
1.30364e-08
0.000128926
1.26352e-08
0.000128916
1.22656e-08
0.000128907
1.19261e-08
0.000128898
1.16148e-08
0.00012889
1.13296e-08
0.000128881
1.10689e-08
0.000128873
1.08291e-08
0.000128865
1.06063e-08
0.000128857
1.03968e-08
0.000128849
1.01974e-08
0.000128842
1.00085e-08
0.000128834
9.83154e-09
0.000128827
9.66793e-09
0.00012882
9.52226e-09
0.000128812
9.39297e-09
0.000128805
9.27967e-09
0.000128798
9.18334e-09
0.000128791
9.10253e-09
0.000128784
9.03446e-09
0.000128778
8.97695e-09
0.000128771
8.92906e-09
0.000128764
8.8919e-09
0.000128757
8.86679e-09
0.000128751
8.85335e-09
0.000128744
8.85036e-09
0.000128737
8.85697e-09
0.00012873
8.87253e-09
0.000128724
8.89639e-09
0.000128717
8.92806e-09
0.00012871
8.96687e-09
0.000128703
9.01186e-09
0.000128696
9.06328e-09
0.000128689
9.12252e-09
0.000128682
9.18961e-09
0.000128675
9.2639e-09
0.000128668
9.34456e-09
0.000128661
9.43099e-09
0.000128654
9.52304e-09
0.000128646
9.62e-09
0.000128639
9.7225e-09
0.000128632
9.8315e-09
0.000128624
9.94737e-09
0.000128616
1.00697e-08
0.000128609
1.01983e-08
0.000128601
1.03344e-08
0.000128593
1.04781e-08
0.000128585
1.06284e-08
0.000128576
1.07849e-08
0.000128568
1.09471e-08
0.00012856
1.11151e-08
0.000128551
1.12892e-08
0.000128542
1.14692e-08
0.000128534
1.16553e-08
0.000128525
1.1848e-08
0.000128515
1.20476e-08
0.000128506
1.22552e-08
0.000128497
1.24711e-08
0.000128487
1.26945e-08
0.000128477
1.29252e-08
0.000128467
1.31632e-08
0.000128457
1.3408e-08
0.000128447
1.36599e-08
0.000128436
1.3919e-08
0.000128425
1.4186e-08
0.000128414
1.44611e-08
0.000128403
1.47444e-08
0.000128392
1.50363e-08
0.00012838
1.53371e-08
0.000128368
1.56473e-08
0.000128356
1.59672e-08
0.000128344
1.62969e-08
0.000128331
1.66365e-08
0.000128318
1.6986e-08
0.000128305
1.7345e-08
0.000128292
1.77137e-08
0.000128278
1.80922e-08
0.000128264
1.84799e-08
0.000128249
1.88768e-08
0.000128235
1.9283e-08
0.00012822
1.96989e-08
0.000128205
2.01246e-08
0.000128189
2.05605e-08
0.000128173
2.10074e-08
0.000128157
2.14657e-08
0.00012814
2.19361e-08
0.000128123
2.24191e-08
0.000128106
2.29156e-08
0.000128088
2.34258e-08
0.00012807
2.39498e-08
0.000128051
2.44884e-08
0.000128032
2.50415e-08
0.000128013
2.56092e-08
0.000127993
2.61913e-08
0.000127973
2.6788e-08
0.000127952
2.74003e-08
0.000127931
2.80291e-08
0.000127909
2.86747e-08
0.000127887
2.93377e-08
0.000127864
3.00183e-08
0.000127841
3.07173e-08
0.000127817
3.14351e-08
0.000127793
3.21723e-08
0.000127768
3.29297e-08
0.000127742
3.37081e-08
0.000127716
3.45079e-08
0.000127689
3.53297e-08
0.000127662
3.61741e-08
0.000127634
3.70416e-08
0.000127605
3.79331e-08
0.000127576
3.88495e-08
0.000127545
3.97917e-08
0.000127515
4.07607e-08
0.000127483
4.17576e-08
0.00012745
4.2783e-08
0.000127417
4.3838e-08
0.000127383
4.49232e-08
0.000127348
4.60396e-08
0.000127313
4.71881e-08
0.000127276
4.83696e-08
0.000127239
4.95855e-08
0.0001272
5.08367e-08
0.000127161
5.21246e-08
0.00012712
5.34504e-08
0.000127079
5.48154e-08
0.000127036
5.62208e-08
0.000126992
5.76679e-08
0.000126948
5.9158e-08
0.000126902
6.06926e-08
0.000126855
6.22729e-08
0.000126806
6.39005e-08
0.000126757
6.55768e-08
0.000126706
6.73034e-08
0.000126653
6.90818e-08
0.0001266
7.09137e-08
0.000126545
7.28008e-08
0.000126488
7.47448e-08
0.00012643
7.67476e-08
0.00012637
7.88109e-08
0.000126309
8.09367e-08
0.000126246
8.31269e-08
0.000126182
8.53837e-08
0.000126115
8.7709e-08
0.000126047
9.0105e-08
0.000125977
9.2574e-08
0.000125905
9.51182e-08
0.000125831
9.77399e-08
0.000125755
1.00441e-07
0.000125677
1.03225e-07
0.000125597
1.06094e-07
0.000125515
1.0905e-07
0.00012543
1.12097e-07
0.000125343
1.15235e-07
0.000125253
1.18469e-07
0.000125161
1.218e-07
0.000125066
1.25232e-07
0.000124969
1.28767e-07
0.000124869
1.32406e-07
0.000124766
1.36154e-07
0.00012466
1.40009e-07
0.000124551
1.43979e-07
0.000124439
1.48047e-07
0.000124324
1.52261e-07
0.000124205
1.56495e-07
0.000124084
1.61048e-07
0.000123959
1.65169e-07
0.00012383
1.70569e-07
0.000123698
1.73174e-07
0.000123562
1.82838e-07
0.000123448
1.42611e-07
0.000123158
3.62884e-07
0.00012271
5.58839e-07
0.00012231
4.77602e-07
0.00012191
4.81705e-07
0.000121502
4.95986e-07
0.000121087
5.03751e-07
0.000120667
5.1003e-07
0.000120243
5.1621e-07
0.000119815
5.22097e-07
0.000119382
5.27885e-07
0.000118945
5.33756e-07
0.000118504
5.39849e-07
0.000118058
5.46046e-07
0.000117607
5.52669e-07
0.000117152
5.59049e-07
0.000116681
5.79822e-07
0.000116187
6.09304e-07
0.000115673
6.3727e-07
0.000115137
6.651e-07
0.000114581
6.92742e-07
0.000114004
7.19777e-07
0.000113407
7.47275e-07
0.000112791
7.72709e-07
0.000112156
7.96903e-07
0.000111504
8.19762e-07
0.000110836
8.41168e-07
0.000110154
8.61122e-07
0.000109457
8.79709e-07
0.000108748
8.96771e-07
0.000108027
9.13343e-07
0.000107295
9.27589e-07
0.000106553
9.40384e-07
0.000105804
9.51417e-07
0.000105047
9.61252e-07
0.000104285
9.6965e-07
0.000103517
9.77198e-07
0.000102745
9.82836e-07
0.00010197
9.86604e-07
0.000101193
9.91211e-07
0.000100413
9.95205e-07
9.96339e-05
9.94179e-07
9.88532e-05
9.9722e-07
9.80718e-05
9.98662e-07
9.72915e-05
9.97663e-07
9.65109e-05
9.98896e-07
9.57305e-05
9.9911e-07
9.49504e-05
9.99573e-07
9.41706e-05
9.99489e-07
9.33876e-05
1.00492e-06
9.26044e-05
1.00516e-06
9.18098e-05
1.02158e-06
9.10064e-05
1.03345e-06
9.01868e-05
1.0561e-06
8.93486e-05
1.08155e-06
8.84917e-05
1.10686e-06
8.76154e-05
1.13321e-06
8.67188e-05
1.16091e-06
8.5801e-05
1.18981e-06
8.4861e-05
1.21994e-06
8.3898e-05
1.25138e-06
8.29108e-05
1.28419e-06
8.18985e-05
1.31843e-06
8.086e-05
1.35423e-06
7.97939e-05
1.39165e-06
7.86991e-05
1.43082e-06
7.75741e-05
1.47188e-06
7.64175e-05
1.51492e-06
7.52251e-05
1.56348e-06
7.39932e-05
1.617e-06
7.2722e-05
1.67056e-06
7.14112e-05
1.72444e-06
7.00592e-05
1.78034e-06
6.8664e-05
1.83919e-06
6.7223e-05
1.90143e-06
6.57335e-05
1.96724e-06
6.41927e-05
2.03698e-06
6.25975e-05
2.11092e-06
6.09445e-05
2.1894e-06
5.92299e-05
2.27292e-06
5.74498e-05
2.36182e-06
5.55997e-05
2.45663e-06
5.36748e-05
2.55793e-06
5.167e-05
2.66619e-06
4.95794e-05
2.78214e-06
4.7397e-05
2.90633e-06
4.51159e-05
3.03943e-06
4.2729e-05
3.18202e-06
4.02287e-05
3.3346e-06
3.76071e-05
3.49745e-06
3.48563e-05
3.67047e-06
3.19689e-05
3.8529e-06
2.89386e-05
4.04288e-06
2.57617e-05
4.23663e-06
2.24391e-05
4.42765e-06
1.89798e-05
4.60434e-06
1.54057e-05
4.74955e-06
1.1758e-05
4.83456e-06
8.10903e-06
4.82246e-06
4.559e-06
4.66377e-06
1.27224e-06
4.29901e-06
-1.99623e-06
4.24057e-06
-2.59747e-06
8.89661e-07
2.81596e-06
-7.73913e-06
6.40965e-06
-4.79048e-06
1.02672e-05
-5.3404e-06
1.49732e-05
-6.47351e-06
2.01869e-05
-7.18716e-06
2.58163e-05
-7.76483e-06
3.18651e-05
-8.35767e-06
3.82553e-05
-8.83715e-06
4.48229e-05
-9.0687e-06
5.16974e-05
-9.50059e-06
5.9062e-05
-1.01993e-05
6.67009e-05
-1.05538e-05
7.43523e-05
-1.05103e-05
8.23814e-05
-1.10564e-05
9.09172e-05
-1.17806e-05
9.92046e-05
-1.13359e-05
0.000107028
-1.05933e-05
0.000116259
-1.2768e-05
0.000125954
-1.3451e-05
0.000129098
-3.18349e-06
0.000127993
2.86327e-06
0.000132056
-6.18657e-06
0.000135914
-5.2475e-06
0.000138568
-3.2435e-06
0.000141067
-3.21501e-06
0.000143674
-3.57714e-06
0.000143663
5.70187e-07
0.000144473
-9.00231e-07
0.000150634
-9.451e-06
0.000157347
-9.53351e-06
0.000161866
-5.90431e-06
0.000162802
-5.56889e-07
0.000162239
1.28712e-06
0.000162779
-7.45692e-07
0.000164443
-2.43595e-06
0.00016571
-1.64196e-06
0.00016614
-3.66461e-07
0.000166228
2.55929e-08
0.000166396
-1.75495e-07
0.000166565
-1.84189e-07
0.00016647
2.21779e-07
0.000166108
6.01843e-07
0.000165767
5.19882e-07
0.000165609
2.18598e-07
0.000165549
8.5278e-08
0.000165482
1.12496e-07
0.000165395
1.37963e-07
0.000165273
1.88239e-07
0.000165124
2.24024e-07
0.00016498
2.11983e-07
0.000164867
1.61538e-07
0.000164755
1.61769e-07
0.000164598
2.33506e-07
0.000164416
2.67329e-07
0.000164292
1.71141e-07
0.000164275
1.10498e-08
0.0001644
-1.94553e-07
0.000164709
-4.63058e-07
0.00016503
-4.58955e-07
0.000165096
-5.25374e-08
0.000164947
2.59667e-07
0.000164929
1.98186e-08
0.000165146
-3.39637e-07
0.000165303
-2.15008e-07
0.000165191
2.09307e-07
0.000164993
3.08202e-07
0.000165025
-6.99079e-08
0.000165239
-3.32635e-07
0.000165243
2.30771e-08
0.000164935
4.9556e-07
0.000164685
3.59827e-07
0.000164744
-1.27935e-07
0.000164868
-1.92126e-07
0.00016468
3.1084e-07
0.000164272
6.24105e-07
0.000164135
1.65325e-07
0.000164361
-3.82971e-07
0.000164359
2.03243e-08
0.000163776
9.17071e-07
0.000163126
9.50447e-07
0.000163086
-2.86361e-08
0.000163447
-5.94801e-07
0.000163339
2.0423e-07
0.000162577
1.18415e-06
0.000161766
1.1618e-06
0.000161226
7.17367e-07
0.00016084
5.12337e-07
0.000160462
5.23138e-07
0.000160061
5.5836e-07
0.000159607
6.35335e-07
0.000159069
7.57214e-07
0.000158361
1.00601e-06
0.000157467
1.27776e-06
0.000156637
1.15703e-06
0.000156093
7.07489e-07
0.000155559
7.14449e-07
0.000154487
1.55355e-06
0.000152936
2.24656e-06
0.000151628
1.80209e-06
0.000150777
1.09219e-06
0.000149643
1.57786e-06
0.000147655
2.87368e-06
0.000145052
3.71451e-06
0.000142317
3.81981e-06
0.00013947
3.95542e-06
0.000136286
4.44571e-06
0.000132667
5.0477e-06
0.000128566
5.71739e-06
0.000123849
6.54974e-06
0.00011758
8.77342e-06
0.000108593
1.26706e-05
9.71356e-05
1.60616e-05
8.45701e-05
1.72671e-05
6.82989e-05
2.2097e-05
3.74709e-05
4.19216e-05
-2.68306e-06
5.43685e-05
-1.71145e-05
1.62277e-05
-1.59769e-05
-2.92458e-06
-1.1248e-05
-6.7815e-06
-8.18469e-06
-4.15446e-06
-6.52321e-06
-2.2777e-06
-5.48492e-06
-1.41804e-06
-4.94265e-06
-7.37851e-07
-4.56757e-06
-5.08639e-07
-4.25889e-06
-4.37609e-07
-4.25911e-06
-1.5102e-09
-4.3831e-06
1.65316e-07
-4.47473e-06
1.15742e-07
-4.6135e-06
1.76422e-07
-4.87174e-06
3.35758e-07
-5.27536e-06
5.35315e-07
-5.75919e-06
6.43671e-07
-6.27527e-06
6.845e-07
-6.84664e-06
7.5715e-07
-7.49597e-06
8.62164e-07
-8.2162e-06
9.56911e-07
-8.99842e-06
1.04004e-06
-9.83362e-06
1.11041e-06
-1.07168e-05
1.17397e-06
-1.16496e-05
1.23916e-06
-1.26444e-05
1.32207e-06
-1.37106e-05
1.41714e-06
-1.48635e-05
1.53777e-06
-1.60576e-05
1.59531e-06
-1.72494e-05
1.5873e-06
-1.84952e-05
1.65936e-06
-1.98332e-05
1.79169e-06
-2.11864e-05
1.81321e-06
-2.25198e-05
1.78288e-06
-2.38785e-05
1.8181e-06
-2.52819e-05
1.87975e-06
-2.67359e-05
1.95314e-06
-2.82062e-05
1.98127e-06
-2.96324e-05
1.91929e-06
-3.1027e-05
1.87712e-06
-3.24119e-05
1.86368e-06
-3.38085e-05
1.88225e-06
-3.5221e-05
1.90988e-06
-3.6606e-05
1.87558e-06
-3.79384e-05
1.80914e-06
-3.91769e-05
1.67815e-06
-4.03575e-05
1.59635e-06
-4.15379e-05
1.60774e-06
-4.26346e-05
1.49842e-06
-4.35681e-05
1.26709e-06
-4.44036e-05
1.13104e-06
-4.51794e-05
1.04914e-06
-4.59009e-05
9.71883e-07
-4.65955e-05
9.28008e-07
-4.73431e-05
1.00267e-06
-4.81621e-05
1.10128e-06
-4.90931e-05
1.24294e-06
-5.03167e-05
1.65499e-06
-5.18565e-05
2.16971e-06
-5.3038e-05
1.66531e-06
-5.37889e-05
1.03824e-06
-5.4456e-05
9.68123e-07
-5.47688e-05
5.61644e-07
-5.39317e-05
-1.31431e-06
-5.42134e-05
4.47196e-07
-5.46291e-05
6.08974e-07
-5.47575e-05
2.24565e-07
-5.4645e-05
-1.25157e-07
-5.44129e-05
-2.8054e-07
-5.40594e-05
-4.51812e-07
-5.36117e-05
-5.76769e-07
-5.3067e-05
-7.10677e-07
-5.24358e-05
-8.27247e-07
-5.17178e-05
-9.45885e-07
-5.09181e-05
-1.05661e-06
-5.00381e-05
-1.16609e-06
-4.90814e-05
-1.27048e-06
-4.80503e-05
-1.37164e-06
-4.69485e-05
-1.4681e-06
-4.57789e-05
-1.56043e-06
-4.45449e-05
-1.64839e-06
-4.32492e-05
-1.73224e-06
-4.18951e-05
-1.8121e-06
-4.04853e-05
-1.88796e-06
-3.90228e-05
-1.95987e-06
-3.75107e-05
-2.02764e-06
-3.59521e-05
-2.09118e-06
-3.43502e-05
-2.15033e-06
-3.27083e-05
-2.20499e-06
-3.10297e-05
-2.25515e-06
-2.93177e-05
-2.30072e-06
-2.75758e-05
-2.34186e-06
-2.58071e-05
-2.37846e-06
-2.40148e-05
-2.41081e-06
-2.22021e-05
-2.43871e-06
-2.03721e-05
-2.46254e-06
-1.85279e-05
-2.48203e-06
-1.66725e-05
-2.49761e-06
-1.48088e-05
-2.50892e-06
-1.29398e-05
-2.51647e-06
-1.10683e-05
-2.51995e-06
-9.19702e-06
-2.51996e-06
-7.32849e-06
-2.51621e-06
-5.46523e-06
-2.50938e-06
-3.60953e-06
-2.49908e-06
-1.76364e-06
-2.48607e-06
7.03963e-08
-2.46993e-06
1.89057e-06
-2.4514e-06
3.69509e-06
-2.43013e-06
5.48221e-06
-2.40677e-06
7.2504e-06
-2.38101e-06
8.99823e-06
-2.35366e-06
1.07245e-05
-2.32427e-06
1.24279e-05
-2.29368e-06
1.41077e-05
-2.26143e-06
1.57628e-05
-2.22824e-06
1.73924e-05
-2.19354e-06
1.89955e-05
-2.158e-06
2.05715e-05
-2.12108e-06
2.21196e-05
-2.0835e-06
2.36392e-05
-2.04482e-06
2.51298e-05
-2.00577e-06
2.65911e-05
-1.96596e-06
2.80228e-05
-1.92612e-06
2.94249e-05
-1.88586e-06
3.07972e-05
-1.84588e-06
3.214e-05
-1.80578e-06
3.34534e-05
-1.7662e-06
3.47377e-05
-1.72674e-06
3.59931e-05
-1.6879e-06
3.722e-05
-1.64928e-06
3.84188e-05
-1.61132e-06
3.95896e-05
-1.57361e-06
4.0733e-05
-1.53659e-06
4.18492e-05
-1.49988e-06
4.29388e-05