/*--------------------------------*- C++ -*----------------------------------*\
  =========                 |
  \\      /  F ield         | OpenFOAM: The Open Source CFD Toolbox
   \\    /   O peration     | Website:  https://openfoam.org
    \\  /    A nd           | Version:  7
     \\/     M anipulation  |
\*---------------------------------------------------------------------------*/
FoamFile
{
    version     2.0;
    format      ascii;
    class       volSymmTensorField;
    location    "801";
    object      tauij_LES;
}
// * * * * * * * * * * * * * * * * * * * * * * * * * * * * * * * * * * * * * //

dimensions      [0 2 -2 0 0 0 0];

internalField   nonuniform List<symmTensor> 
51626
(
(1.85692 0 -0.0288195 0.514396 0 0.00337225)
(1.48877 0 -0.0194402 0.469096 0 0.00234059)
(1.16616 0 -0.0158149 0.382693 0 0.00201162)
(1.1058 0 -0.0151211 0.358496 0 0.00190614)
(1.09941 0 -0.0149022 0.348896 0 0.00186209)
(1.10909 0 -0.014887 0.346052 0 0.00184562)
(1.12244 0 -0.0149351 0.345666 0 0.00183877)
(1.13465 0 -0.0150196 0.347948 0 0.00185009)
(1.14909 0 -0.0151828 0.350896 0 0.00187009)
(1.16316 0 -0.0153639 0.353799 0 0.00189036)
(1.17881 0 -0.0155996 0.3575 0 0.00191336)
(1.18944 0 -0.0157243 0.35901 0 0.00192465)
(1.19633 0 -0.01581 0.360141 0 0.0019286)
(1.20125 0 -0.0158932 0.363076 0 0.00194745)
(1.20789 0 -0.0160428 0.364962 0 0.00196569)
(1.21526 0 -0.0161159 0.365859 0 0.00197222)
(1.21865 0 -0.0161438 0.366384 0 0.0019774)
(1.22217 0 -0.0161708 0.366236 0 0.00197858)
(1.22676 0 -0.0162058 0.36657 0 0.0019816)
(1.23112 0 -0.0162703 0.367079 0 0.00198568)
(1.23238 0 -0.01624 0.36716 0 0.00198158)
(1.23058 0 -0.0162197 0.365918 0 0.00197669)
(1.2334 0 -0.0162626 0.365617 0 0.00198033)
(1.23668 0 -0.0162798 0.3667 0 0.00198354)
(1.23786 0 -0.0163025 0.36714 0 0.00198819)
(1.23843 0 -0.0163242 0.366969 0 0.00198927)
(1.23941 0 -0.0163195 0.366076 0 0.00198595)
(1.24058 0 -0.0163196 0.366687 0 0.00199379)
(1.24191 0 -0.0163434 0.366706 0 0.00199547)
(1.24258 0 -0.0163397 0.366112 0 0.00199535)
(1.24531 0 -0.0163576 0.365743 0 0.00199262)
(1.24603 0 -0.0163441 0.36566 0 0.00198954)
(1.2492 0 -0.0164023 0.364618 0 0.00198549)
(1.25111 0 -0.0163941 0.363397 0 0.00197992)
(1.25037 0 -0.0163626 0.363649 0 0.00198025)
(1.24743 0 -0.0163073 0.364606 0 0.00198681)
(1.24705 0 -0.0163406 0.364109 0 0.00198465)
(1.25078 0 -0.0164049 0.364015 0 0.00198715)
(1.25463 0 -0.0164609 0.363451 0 0.001991)
(1.25338 0 -0.0163884 0.362522 0 0.0019814)
(1.2501 0 -0.0163195 0.362008 0 0.00197712)
(1.24845 0 -0.0162989 0.361757 0 0.00197314)
(1.25029 0 -0.0163655 0.362201 0 0.00198185)
(1.25044 0 -0.0163669 0.362163 0 0.00198834)
(1.25295 0 -0.01646 0.361908 0 0.00199079)
(1.2544 0 -0.0164498 0.362241 0 0.00198764)
(1.25373 0 -0.0164298 0.363107 0 0.00198903)
(1.25418 0 -0.0164092 0.362246 0 0.00198593)
(1.25195 0 -0.016313 0.36065 0 0.00197274)
(1.2525 0 -0.0163295 0.36062 0 0.00197392)
(1.25469 0 -0.0163839 0.360818 0 0.00198017)
(1.25622 0 -0.0163851 0.36085 0 0.00198328)
(1.25847 0 -0.0164426 0.362046 0 0.0019886)
(1.25952 0 -0.016466 0.362526 0 0.00199049)
(1.25893 0 -0.0164201 0.361841 0 0.00198574)
(1.25906 0 -0.0164182 0.362502 0 0.00198192)
(1.25887 0 -0.0164065 0.36182 0 0.0019779)
(1.26056 0 -0.0164567 0.362166 0 0.00198527)
(1.26452 0 -0.0165139 0.362521 0 0.00199375)
(1.26723 0 -0.0165224 0.362254 0 0.0019941)
(1.26675 0 -0.0165116 0.362067 0 0.00199521)
(1.26417 0 -0.016497 0.361516 0 0.00198618)
(1.26131 0 -0.0164421 0.36112 0 0.0019804)
(1.25878 0 -0.0163974 0.360145 0 0.00197988)
(1.25652 0 -0.0163802 0.36069 0 0.00198439)
(1.25819 0 -0.0164137 0.360984 0 0.00198523)
(1.25978 0 -0.0164095 0.360575 0 0.00198061)
(1.25825 0 -0.0163632 0.360144 0 0.00197815)
(1.256 0 -0.0163299 0.359195 0 0.0019736)
(1.25593 0 -0.0163355 0.359198 0 0.00197087)
(1.25816 0 -0.0163534 0.359356 0 0.00197377)
(1.25907 0 -0.0163748 0.359959 0 0.00197487)
(1.25916 0 -0.0164048 0.35933 0 0.0019737)
(1.25954 0 -0.0163871 0.359016 0 0.00198339)
(1.2613 0 -0.0163999 0.358265 0 0.00197762)
(1.26446 0 -0.0164302 0.358415 0 0.00197837)
(1.26416 0 -0.0164135 0.358923 0 0.00198264)
(1.26278 0 -0.0164666 0.359701 0 0.00198663)
(1.26254 0 -0.0164254 0.358951 0 0.00197912)
(1.26246 0 -0.0163937 0.358109 0 0.00197896)
(1.26169 0 -0.0164399 0.357574 0 0.00197958)
(1.26589 0 -0.016517 0.358717 0 0.00199041)
(1.2678 0 -0.0165395 0.358869 0 0.00199484)
(1.26935 0 -0.0165803 0.358789 0 0.00199037)
(1.26588 0 -0.016479 0.358318 0 0.0019843)
(1.26547 0 -0.0164937 0.358226 0 0.00198587)
(1.26713 0 -0.0165122 0.358429 0 0.00198483)
(1.26879 0 -0.0165544 0.358462 0 0.0019893)
(1.26673 0 -0.0165411 0.358146 0 0.00198715)
(1.26431 0 -0.0165123 0.356085 0 0.00197795)
(1.26501 0 -0.0165142 0.356299 0 0.00197949)
(1.26448 0 -0.0164895 0.355515 0 0.00197559)
(1.26143 0 -0.0164722 0.355366 0 0.00197645)
(1.26344 0 -0.0165199 0.35619 0 0.00197953)
(1.26595 0 -0.0165284 0.355525 0 0.00197377)
(1.26365 0 -0.0164515 0.354733 0 0.00197144)
(1.26146 0 -0.0164555 0.35409 0 0.0019698)
(1.26203 0 -0.0164022 0.353578 0 0.00196179)
(1.26208 0 -0.0163588 0.354079 0 0.00196576)
(1.26349 0 -0.0163648 0.353121 0 0.00195614)
(1.26096 0 -0.0162835 0.351302 0 0.00194312)
(1.25953 0 -0.0162872 0.352175 0 0.00195049)
(1.25785 0 -0.0162959 0.351931 0 0.00195415)
(1.26286 0 -0.0164282 0.353653 0 0.0019645)
(1.26656 0 -0.0164354 0.353391 0 0.00196411)
(1.26814 0 -0.0164459 0.352806 0 0.00195639)
(1.26827 0 -0.0164402 0.353195 0 0.00196263)
(1.26552 0 -0.0163843 0.352848 0 0.00196394)
(1.26346 0 -0.0163986 0.352697 0 0.00196211)
(1.2627 0 -0.0163788 0.352562 0 0.0019618)
(1.26342 0 -0.0164186 0.353478 0 0.00196645)
(1.26138 0 -0.0163779 0.352267 0 0.0019587)
(1.25789 0 -0.016361 0.351997 0 0.00195973)
(1.26003 0 -0.0164345 0.353407 0 0.00197396)
(1.26196 0 -0.0164449 0.354387 0 0.00197549)
(1.26383 0 -0.0164656 0.353585 0 0.00197344)
(1.26299 0 -0.0163982 0.351516 0 0.00196013)
(1.26146 0 -0.0163662 0.351265 0 0.00196073)
(1.25802 0 -0.0163413 0.351392 0 0.00195885)
(1.25947 0 -0.016402 0.351675 0 0.0019633)
(1.25959 0 -0.0163808 0.350654 0 0.00195676)
(1.25899 0 -0.016409 0.350223 0 0.00195634)
(1.258 0 -0.0163351 0.349491 0 0.00194658)
(1.25616 0 -0.0162987 0.35022 0 0.00195164)
(1.25417 0 -0.0162735 0.349512 0 0.00194807)
(1.25609 0 -0.0162825 0.348634 0 0.00194315)
(1.25701 0 -0.0162898 0.347519 0 0.00194161)
(1.25885 0 -0.0163524 0.347023 0 0.00193849)
(1.25883 0 -0.0163193 0.347376 0 0.0019427)
(1.25577 0 -0.0162678 0.347567 0 0.00194521)
(1.25259 0 -0.0162815 0.348278 0 0.00195429)
(1.25462 0 -0.0163471 0.348668 0 0.00195904)
(1.25478 0 -0.0163532 0.34838 0 0.00195527)
(1.25466 0 -0.0163271 0.346963 0 0.00194142)
(1.25253 0 -0.0162642 0.345728 0 0.00193281)
(1.25317 0 -0.0163196 0.346335 0 0.00193987)
(1.25606 0 -0.0163413 0.347239 0 0.00194723)
(1.25586 0 -0.0162943 0.346654 0 0.00194075)
(1.25482 0 -0.0162616 0.345163 0 0.00192972)
(1.25267 0 -0.0162202 0.345442 0 0.00193462)
(1.25219 0 -0.0162629 0.346114 0 0.00193911)
(1.25116 0 -0.0162359 0.346118 0 0.00194014)
(1.2508 0 -0.0162346 0.345459 0 0.00193619)
(1.25059 0 -0.0161947 0.344041 0 0.00192723)
(1.24677 0 -0.0161164 0.342735 0 0.00191849)
(1.24807 0 -0.0161617 0.343902 0 0.00192679)
(1.24945 0 -0.0161691 0.34421 0 0.00192436)
(1.24793 0 -0.0161459 0.344092 0 0.00192699)
(1.24638 0 -0.0161852 0.343865 0 0.00192493)
(1.2465 0 -0.0161873 0.343834 0 0.00191891)
(1.24794 0 -0.0161723 0.344998 0 0.00192593)
(1.24602 0 -0.016132 0.344891 0 0.0019279)
(1.24608 0 -0.0161786 0.345035 0 0.00192893)
(1.24807 0 -0.0161911 0.344141 0 0.00192302)
(1.24689 0 -0.0161325 0.343034 0 0.00191373)
(1.24574 0 -0.0161299 0.341796 0 0.00191211)
(1.24755 0 -0.0161551 0.342505 0 0.00191621)
(1.24818 0 -0.0161574 0.34336 0 0.00191933)
(1.24851 0 -0.0161746 0.343438 0 0.00192293)
(1.24897 0 -0.0162032 0.344607 0 0.00193309)
(1.24866 0 -0.0161738 0.344302 0 0.0019264)
(1.24836 0 -0.0161582 0.344542 0 0.00192778)
(1.24879 0 -0.016158 0.344081 0 0.00192478)
(1.2458 0 -0.0161059 0.343537 0 0.00192379)
(1.24512 0 -0.0161357 0.342826 0 0.00192071)
(1.24751 0 -0.0161703 0.343211 0 0.00191959)
(1.2458 0 -0.0161106 0.34286 0 0.00191131)
(1.24471 0 -0.0160892 0.343405 0 0.00191486)
(1.24409 0 -0.0160993 0.34448 0 0.00192274)
(1.24353 0 -0.0160879 0.344103 0 0.00192202)
(1.24266 0 -0.0160781 0.343305 0 0.00192356)
(1.2405 0 -0.0160769 0.34314 0 0.00191883)
(1.23916 0 -0.0160495 0.342844 0 0.0019195)
(1.23873 0 -0.016039 0.342017 0 0.00191699)
(1.23806 0 -0.0160369 0.341392 0 0.00191422)
(1.2372 0 -0.0160484 0.341397 0 0.00191536)
(1.23593 0 -0.0160453 0.341305 0 0.00191269)
(1.23719 0 -0.0160445 0.34165 0 0.00191282)
(1.23761 0 -0.0160146 0.342377 0 0.001914)
(1.23614 0 -0.0160229 0.342215 0 0.00191619)
(1.23422 0 -0.0159961 0.341227 0 0.0019124)
(1.23479 0 -0.016001 0.340995 0 0.00191015)
(1.2343 0 -0.0159853 0.339935 0 0.00190428)
(1.23468 0 -0.0160085 0.340855 0 0.00191291)
(1.23353 0 -0.0159968 0.340464 0 0.00191234)
(1.2338 0 -0.0160222 0.340112 0 0.00191089)
(1.23365 0 -0.016007 0.339649 0 0.00190635)
(1.23097 0 -0.0159818 0.339218 0 0.00190138)
(1.23089 0 -0.0160149 0.340255 0 0.00190492)
(1.23182 0 -0.0160069 0.34135 0 0.00191062)
(1.23107 0 -0.0159737 0.340313 0 0.00190512)
(1.23049 0 -0.0159714 0.339127 0 0.00190541)
(1.23063 0 -0.0159804 0.339707 0 0.00190684)
(1.22935 0 -0.0159575 0.338756 0 0.00189721)
(1.22707 0 -0.0158893 0.338578 0 0.00188995)
(1.22702 0 -0.0158966 0.338956 0 0.00189134)
(1.22605 0 -0.0158585 0.338487 0 0.001894)
(1.22663 0 -0.0158858 0.338656 0 0.00189749)
(1.22735 0 -0.0159268 0.338975 0 0.00189879)
(1.22817 0 -0.01592 0.339196 0 0.00189665)
(1.23126 0 -0.0159806 0.340355 0 0.00190324)
(1.23356 0 -0.0159942 0.340043 0 0.00190412)
(1.23164 0 -0.0159394 0.339763 0 0.00190004)
(1.22987 0 -0.0158978 0.340208 0 0.00189763)
(1.22866 0 -0.0158718 0.339916 0 0.00189264)
(1.22549 0 -0.0158107 0.339516 0 0.00189189)
(1.22184 0 -0.0157775 0.338919 0 0.00188906)
(1.22239 0 -0.0158277 0.339281 0 0.00189299)
(1.22172 0 -0.0158031 0.339296 0 0.00189187)
(1.2199 0 -0.0157893 0.338494 0 0.00188853)
(1.21749 0 -0.0157365 0.337432 0 0.00188286)
(1.21632 0 -0.0157544 0.338354 0 0.00189223)
(1.2167 0 -0.0157531 0.337767 0 0.00188819)
(1.21699 0 -0.0157688 0.337546 0 0.00188959)
(1.21782 0 -0.0158128 0.337975 0 0.0018941)
(1.21608 0 -0.0157638 0.337156 0 0.00188153)
(1.21524 0 -0.0156958 0.335945 0 0.00187698)
(1.21422 0 -0.015675 0.33631 0 0.0018806)
(1.21378 0 -0.0157178 0.337567 0 0.00188696)
(1.21333 0 -0.0157186 0.338077 0 0.00188962)
(1.21346 0 -0.015742 0.338623 0 0.00189272)
(1.21564 0 -0.015753 0.338549 0 0.00188987)
(1.21707 0 -0.015784 0.338199 0 0.00189239)
(1.21887 0 -0.0158258 0.338828 0 0.00189579)
(1.2185 0 -0.0157692 0.339777 0 0.00189637)
(1.21528 0 -0.015729 0.340159 0 0.00189421)
(1.21522 0 -0.0157658 0.340087 0 0.0018956)
(1.21328 0 -0.0156831 0.338918 0 0.00189458)
(1.21021 0 -0.0156418 0.337527 0 0.00188404)
(1.20901 0 -0.0156751 0.33825 0 0.00188604)
(1.20676 0 -0.0156749 0.337714 0 0.00188632)
(1.2042 0 -0.0156373 0.336671 0 0.00187949)
(1.19991 0 -0.0155692 0.336621 0 0.00187923)
(1.19686 0 -0.0155505 0.337548 0 0.00188569)
(1.19502 0 -0.0155464 0.336375 0 0.00188041)
(1.19534 0 -0.015567 0.336096 0 0.00187658)
(1.19508 0 -0.0155042 0.336279 0 0.00187137)
(1.1886 0 -0.0153973 0.334615 0 0.00186195)
(1.1864 0 -0.0154008 0.334681 0 0.00186307)
(1.1865 0 -0.0153721 0.334567 0 0.001854)
(1.18197 0 -0.0152477 0.333497 0 0.00184048)
(1.1773 0 -0.0152076 0.332671 0 0.00183586)
(1.17478 0 -0.0151755 0.332034 0 0.00183413)
(1.17297 0 -0.015156 0.331342 0 0.00182915)
(1.17161 0 -0.0151084 0.331149 0 0.00182916)
(1.16788 0 -0.0150539 0.330589 0 0.00182367)
(1.16729 0 -0.0150586 0.330456 0 0.00182166)
(1.16412 0 -0.0149811 0.329845 0 0.00181387)
(1.15906 0 -0.0148886 0.328258 0 0.00180087)
(1.15341 0 -0.0148165 0.327348 0 0.00180021)
(1.14922 0 -0.0147645 0.326763 0 0.00179336)
(1.14709 0 -0.0147751 0.326643 0 0.00179234)
(1.14649 0 -0.0147502 0.326479 0 0.00178965)
(1.14626 0 -0.0147745 0.32656 0 0.00179088)
(1.14523 0 -0.014744 0.326483 0 0.00178889)
(1.14165 0 -0.0146819 0.3264 0 0.00178541)
(1.13793 0 -0.014638 0.326046 0 0.00177816)
(1.13513 0 -0.0145801 0.325966 0 0.00177304)
(1.13141 0 -0.0145347 0.325726 0 0.00176944)
(1.12522 0 -0.0144135 0.323549 0 0.00175545)
(1.11906 0 -0.0143232 0.322806 0 0.00174715)
(1.11322 0 -0.0142395 0.32232 0 0.00173801)
(1.10838 0 -0.0141667 0.321651 0 0.00173199)
(1.10353 0 -0.0140804 0.321283 0 0.00172216)
(1.09985 0 -0.0140216 0.320733 0 0.00171204)
(1.09367 0 -0.0139255 0.319489 0 0.00170203)
(1.08646 0 -0.0137867 0.318426 0 0.00168748)
(1.07764 0 -0.0136728 0.317114 0 0.00167882)
(1.0733 0 -0.0136494 0.316282 0 0.00167591)
(1.06969 0 -0.0135392 0.314886 0 0.00166303)
(1.05859 0 -0.0133442 0.311989 0 0.00163845)
(1.05161 0 -0.0132698 0.311079 0 0.00162814)
(1.0447 0 -0.0131221 0.309629 0 0.00161134)
(1.03623 0 -0.0130165 0.308569 0 0.00160506)
(1.03105 0 -0.0129673 0.307964 0 0.00159696)
(1.02308 0 -0.0128425 0.306955 0 0.00158234)
(1.01372 0 -0.012682 0.304412 0 0.00156321)
(1.00542 0 -0.0125875 0.303839 0 0.00155435)
(1.00107 0 -0.0125163 0.302682 0 0.00154657)
(0.993846 0 -0.012406 0.301196 0 0.00153801)
(0.986978 0 -0.0123283 0.300156 0 0.00152916)
(0.981423 0 -0.0122465 0.298338 0 0.00151261)
(0.973598 0 -0.0120933 0.297147 0 0.00150339)
(0.967861 0 -0.0120366 0.297344 0 0.00149793)
(0.963465 0 -0.0119655 0.296935 0 0.00149056)
(0.956893 0 -0.0118633 0.295487 0 0.00147919)
(0.949681 0 -0.0117746 0.294481 0 0.00146949)
(0.944112 0 -0.0116826 0.293377 0 0.00146051)
(0.937402 0 -0.0115776 0.293047 0 0.00145544)
(0.929698 0 -0.011477 0.291716 0 0.0014474)
(0.922278 0 -0.0113777 0.291124 0 0.00143905)
(0.916016 0 -0.0113093 0.291639 0 0.00144027)
(0.910849 0 -0.0112549 0.291206 0 0.00143202)
(0.904248 0 -0.0111528 0.290478 0 0.00142556)
(0.896912 0 -0.0110889 0.290284 0 0.00142428)
(0.89209 0 -0.0110522 0.290387 0 0.00142005)
(0.884228 0 -0.0109575 0.289534 0 0.00141285)
(0.87722 0 -0.0108413 0.288494 0 0.00140173)
(0.869611 0 -0.0107044 0.286316 0 0.00138968)
(0.860492 0 -0.0105801 0.286055 0 0.00138871)
(0.852374 0 -0.0105407 0.285513 0 0.0013857)
(0.844774 0 -0.0104518 0.284878 0 0.0013785)
(0.83445 0 -0.0103166 0.28362 0 0.00136821)
(0.82407 0 -0.0101612 0.280922 0 0.00134571)
(0.814346 0 -0.0100159 0.278894 0 0.00133307)
(0.807613 0 -0.00994994 0.278409 0 0.00133021)
(0.799572 0 -0.00983044 0.277019 0 0.00131857)
(0.79049 0 -0.00970009 0.277522 0 0.00131311)
(0.779255 0 -0.00956733 0.276179 0 0.00130223)
(0.769289 0 -0.00943939 0.27481 0 0.00129057)
(0.757237 0 -0.00927339 0.273636 0 0.00128015)
(0.746763 0 -0.009168 0.273428 0 0.0012791)
(0.738712 0 -0.00906902 0.272888 0 0.00127248)
(0.728123 0 -0.00891655 0.271914 0 0.00126089)
(0.715931 0 -0.00876161 0.270878 0 0.00124464)
(0.7033 0 -0.0085841 0.269657 0 0.00123556)
(0.690235 0 -0.00842064 0.268911 0 0.00122821)
(0.679505 0 -0.0083137 0.268751 0 0.0012243)
(0.668304 0 -0.00815605 0.267486 0 0.0012117)
(0.655639 0 -0.00798717 0.266617 0 0.00120031)
(0.64176 0 -0.00777517 0.264839 0 0.00118454)
(0.629829 0 -0.00761219 0.264741 0 0.00117672)
(0.619247 0 -0.00747044 0.264485 0 0.00117003)
(0.605983 0 -0.00727626 0.263281 0 0.00115786)
(0.591851 0 -0.00708887 0.262043 0 0.00114825)
(0.577656 0 -0.0068866 0.260111 0 0.001133)
(0.559838 0 -0.00661601 0.257937 0 0.00111166)
(0.541612 0 -0.00636721 0.257585 0 0.00110054)
(0.52425 0 -0.00613684 0.256281 0 0.00108192)
(0.510547 0 -0.00593451 0.256566 0 0.00107196)
(0.493472 0 -0.0056894 0.256192 0 0.00105646)
(0.475558 0 -0.00540083 0.254779 0 0.001038)
(0.458635 0 -0.00514746 0.254585 0 0.00102638)
(0.440361 0 -0.0048741 0.255552 0 0.00101482)
(0.421362 0 -0.00460525 0.256468 0 0.00100482)
(0.400384 0 -0.00430282 0.256826 0 0.000986882)
(0.378719 0 -0.00395776 0.257602 0 0.000972398)
(0.352939 0 -0.00364094 0.26239 0 0.000966276)
(0.318476 0 -0.00324968 0.269525 0 0.000955162)
(0.275206 0 0.00632556 0.315388 0 0.00171853)
(0.33466 0 0.0385138 0.396541 0 0.00554637)
(0.318032 0 0.05559 0.393921 0 0.0106754)
(0.296499 0 0.0701269 0.405371 0 0.0174511)
(0.278901 0 0.0834161 0.421915 0 0.0257324)
(0.265959 0 0.0952089 0.44069 0 0.0347982)
(0.252392 0 0.104057 0.454476 0 0.0435575)
(0.243576 0 0.112472 0.468818 0 0.05255)
(0.240072 0 0.121291 0.480754 0 0.0618496)
(0.239151 0 0.129515 0.487175 0 0.0706651)
(0.24037 0 0.137465 0.490673 0 0.0791055)
(0.246112 0 0.146805 0.493383 0 0.0880333)
(0.257194 0 0.157773 0.493787 0 0.0972235)
(0.270818 0 0.168556 0.488919 0 0.105324)
(0.28706 0 0.179737 0.483136 0 0.112939)
(0.308582 0 0.192869 0.475641 0 0.120931)
(0.336471 0 0.2076 0.464722 0 0.128464)
(0.366208 0 0.220959 0.45087 0 0.133692)
(0.399421 0 0.235271 0.439552 0 0.13895)
(0.447585 0 0.255005 0.42626 0 0.145673)
(0.498442 0 0.266642 0.38945 0 0.143067)
(0.517555 0 0.258232 0.345004 0 0.129208)
(0.545458 0 0.261914 0.330151 0 0.126116)
(0.581555 0 0.269395 0.317613 0 0.125163)
(0.612279 0 0.272753 0.302516 0 0.121884)
(0.640971 0 0.27516 0.289905 0 0.118508)
(0.674428 0 0.280077 0.281088 0 0.11671)
(0.70277 0 0.280887 0.267897 0 0.112681)
(0.719595 0 0.278927 0.261339 0 0.108536)
(0.765427 0 0.293886 0.272043 0 0.113289)
(0.821066 0 0.310777 0.277363 0 0.11811)
(0.865228 0 0.318201 0.270988 0 0.117519)
(0.893291 0 0.3146 0.255491 0 0.111296)
(0.909142 0 0.305636 0.241652 0 0.103242)
(0.936069 0 0.302531 0.236191 0 0.0982805)
(0.97917 0 0.305882 0.235761 0 0.096086)
(1.02497 0 0.308968 0.234767 0 0.0937001)
(1.0699 0 0.310268 0.233868 0 0.0905774)
(1.11801 0 0.3118 0.235085 0 0.0875978)
(1.17656 0 0.31597 0.239826 0 0.0855484)
(1.24744 0 0.32287 0.247007 0 0.0843241)
(1.32439 0 0.330269 0.25581 0 0.0831939)
(1.40929 0 0.338551 0.266928 0 0.08225)
(1.50081 0 0.347786 0.28073 0 0.0816121)
(1.60382 0 0.359071 0.299071 0 0.0815274)
(1.7226 0 0.372995 0.319522 0 0.0820327)
(1.84721 0 0.387069 0.342106 0 0.0825123)
(1.96812 0 0.399217 0.364913 0 0.0825274)
(2.09496 0 0.411349 0.388428 0 0.0824632)
(2.22362 0 0.422777 0.412989 0 0.0822226)
(2.34949 0 0.432659 0.436969 0 0.0816595)
(2.46962 0 0.440704 0.460567 0 0.0807652)
(2.57758 0 0.445773 0.481297 0 0.079337)
(2.67661 0 0.448467 0.502617 0 0.0775087)
(2.76688 0 0.449162 0.522143 0 0.0753942)
(2.85438 0 0.44915 0.540689 0 0.0732632)
(2.93178 0 0.447578 0.557329 0 0.0710073)
(2.99896 0 0.444418 0.572506 0 0.0686132)
(3.05214 0 0.439354 0.583993 0 0.0660573)
(3.09794 0 0.432632 0.594773 0 0.0632831)
(3.13405 0 0.423331 0.601152 0 0.0600817)
(3.16584 0 0.412657 0.606019 0 0.0567223)
(3.19962 0 0.402714 0.611188 0 0.0536422)
(3.23551 0 0.393577 0.616251 0 0.0508474)
(3.26094 0 0.382655 0.62034 0 0.0478948)
(3.27652 0 0.369457 0.622082 0 0.0446645)
(3.29145 0 0.355996 0.624656 0 0.0415246)
(3.31566 0 0.344279 0.630053 0 0.0387924)
(3.34558 0 0.333432 0.63503 0 0.0362971)
(3.36165 0 0.320327 0.634792 0 0.0335951)
(3.37262 0 0.305532 0.635718 0 0.0307597)
(3.38281 0 0.291041 0.637957 0 0.0281357)
(3.40615 0 0.278695 0.643203 0 0.025925)
(3.43248 0 0.26645 0.647364 0 0.0238207)
(3.44857 0 0.252067 0.646456 0 0.0215574)
(3.45571 0 0.236266 0.649013 0 0.0193123)
(3.46833 0 0.221819 0.653855 0 0.0173739)
(3.49109 0 0.208942 0.659788 0 0.015723)
(3.50817 0 0.194449 0.661923 0 0.0140077)
(3.51272 0 0.177149 0.659458 0 0.0121548)
(3.50939 0 0.159703 0.657613 0 0.0104882)
(3.52324 0 0.145112 0.665461 0 0.0092387)
(3.54797 0 0.131654 0.673036 0 0.00818247)
(3.5651 0 0.115582 0.673476 0 0.00705036)
(3.55701 0 0.0963371 0.670424 0 0.00591046)
(3.5507 0 0.0773581 0.668272 0 0.00498278)
(3.55888 0 0.0599095 0.673592 0 0.00433889)
(3.57617 0 0.0430589 0.679835 0 0.00388372)
(3.58605 0 0.0257879 0.684608 0 0.00358301)
(3.5928 0 0.00822196 0.688414 0 0.00343925)
(3.59379 0 -0.00983928 0.688829 0 0.0034472)
(3.58942 0 -0.0282464 0.686827 0 0.00363388)
(3.58491 0 -0.0473863 0.687614 0 0.00405014)
(3.57368 0 -0.0671603 0.688004 0 0.00469832)
(3.57138 0 -0.0869223 0.69137 0 0.00557838)
(3.574 0 -0.106067 0.695242 0 0.00663505)
(3.57043 0 -0.125347 0.693959 0 0.00787849)
(3.54844 0 -0.146214 0.69196 0 0.00950376)
(3.52917 0 -0.168812 0.689242 0 0.0115573)
(3.52054 0 -0.191006 0.691309 0 0.0138712)
(3.51853 0 -0.212273 0.696028 0 0.0163453)
(3.50455 0 -0.234546 0.696326 0 0.0192407)
(3.47048 0 -0.258572 0.687675 0 0.0227765)
(3.43005 0 -0.283854 0.68361 0 0.0270099)
(3.40569 0 -0.310381 0.686575 0 0.0318405)
(3.38574 0 -0.337257 0.691269 0 0.0371924)
(3.35728 0 -0.364118 0.693742 0 0.043125)
(3.32176 0 -0.391099 0.695483 0 0.0497031)
(3.28103 0 -0.418595 0.700696 0 0.0571055)
(3.23642 0 -0.446705 0.70476 0 0.0653954)
(3.17876 0 -0.476454 0.703984 0 0.0751865)
(3.09067 0 -0.507469 0.699025 0 0.0871269)
(2.98506 0 -0.538631 0.699782 0 0.101049)
(2.91145 0 -0.57281 0.722062 0 0.11668)
(2.88907 0 -0.619332 0.761268 0 0.136985)
(2.67573 0 -0.660956 0.748535 0 0.167845)
(2.01389 0 -0.62044 0.816472 0 0.197328)
(1.88266 0 -0.738181 1.62815 0 0.303094)
(1.74518 0 -0.896124 2.41939 0 0.477766)
(1.11613 0 -0.700284 1.79698 0 0.449391)
(0.564828 0 -0.40276 0.961818 0 0.291087)
(0.281318 0 -0.21898 0.534644 0 0.171896)
(0.159423 0 -0.131102 0.34571 0 0.108379)
(0.106812 0 -0.0902305 0.258497 0 0.0765075)
(0.0837422 0 -0.0715609 0.211979 0 0.0613356)
(0.0680907 0 -0.0577483 0.178149 0 0.0491165)
(0.0620257 0 -0.0515288 0.158658 0 0.0429276)
(0.0595709 0 -0.0490133 0.145572 0 0.0404353)
(0.0575368 0 -0.0468996 0.135912 0 0.0383312)
(0.058929 0 -0.0469815 0.131149 0 0.0375607)
(0.0647331 0 -0.0498288 0.131534 0 0.0384676)
(0.0713056 0 -0.0528321 0.134373 0 0.0392662)
(0.0789807 0 -0.0564901 0.137108 0 0.0405347)
(0.0884443 0 -0.0609387 0.141137 0 0.0421309)
(0.09981 0 -0.065854 0.149348 0 0.0436132)
(0.113676 0 -0.0714154 0.159777 0 0.0450561)
(0.130922 0 -0.0781043 0.166896 0 0.0468098)
(0.154187 0 -0.0870687 0.180349 0 0.0494097)
(0.172506 0 -0.0918917 0.195742 0 0.0492231)
(0.194515 0 -0.0974495 0.20946 0 0.0491276)
(0.218343 0 -0.102489 0.225393 0 0.0484499)
(0.244464 0 -0.107203 0.245247 0 0.0473957)
(0.271402 0 -0.110922 0.263003 0 0.0457675)
(0.296275 0 -0.112808 0.285644 0 0.0434271)
(0.332725 0 -0.118208 0.311676 0 0.0425268)
(0.365966 0 -0.121277 0.341099 0 0.040784)
(0.399327 0 -0.123015 0.377335 0 0.0385703)
(0.436155 0 -0.125109 0.418401 0 0.0366317)
(0.490252 0 -0.131517 0.460993 0 0.0360998)
(0.539714 0 -0.135439 0.502981 0 0.0348828)
(0.586443 0 -0.137463 0.549942 0 0.0332209)
(0.631991 0 -0.138596 0.60876 0 0.0315239)
(0.679789 0 -0.139929 0.66598 0 0.0300216)
(0.742572 0 -0.144313 0.722839 0 0.0293859)
(0.78433 0 -0.144429 0.756773 0 0.0279911)
(0.82282 0 -0.14358 0.800382 0 0.0265209)
(0.875389 0 -0.144958 0.863618 0 0.0255975)
(0.935476 0 -0.147117 0.933378 0 0.0248453)
(0.982999 0 -0.147257 0.993666 0 0.0238544)
(1.0317 0 -0.14766 1.04806 0 0.0230222)
(1.07429 0 -0.14705 1.11142 0 0.0221068)
(1.13174 0 -0.148256 1.18034 0 0.0215161)
(1.21802 0 -0.151861 1.26094 0 0.0211797)
(1.24394 0 -0.146386 1.31089 0 0.0194794)
(1.27618 0 -0.141663 1.37894 0 0.0180874)
(1.29447 0 -0.134213 1.43722 0 0.0163913)
(1.35518 0 -0.128825 1.50607 0 0.0148663)
(1.4132 0 -0.120114 1.57061 0 0.0129399)
(1.46744 0 -0.108344 1.69093 0 0.010924)
(1.53854 0 -0.0949886 1.76943 0 0.00893869)
(1.57634 0 -0.0768076 1.88136 0 0.0069766)
(1.66568 0 -0.0604061 2.01944 0 0.00561125)
(1.74983 0 -0.0426397 2.14761 0 0.00458059)
(1.80357 0 -0.025227 2.2359 0 0.00399506)
(1.85677 0 -0.014217 2.26232 0 0.00374556)
(1.91682 0 -0.0133299 2.30673 0 0.00380223)
(1.90893 0 -0.0140398 2.33072 0 0.00383165)
(1.93928 0 -0.0146869 2.34648 0 0.00383833)
(1.98546 0 -0.0200761 2.44225 0 0.00409806)
(2.00785 0 -0.0216022 2.54026 0 0.00426158)
(2.0336 0 -0.00323716 2.60914 0 0.0041501)
(2.06139 0 0.00143841 2.64552 0 0.00404965)
(2.06382 0 0.000855224 2.64379 0 0.00406594)
(2.08974 0 0.000349731 2.62477 0 0.00407628)
(2.09068 0 -0.000137619 2.58229 0 0.00409884)
(2.07217 0 -0.000687772 2.58353 0 0.00401037)
(2.07242 0 -0.00136593 2.60697 0 0.00404988)
(2.0995 0 -0.00189465 2.5808 0 0.00402779)
(2.08516 0 -0.002221 2.55374 0 0.00395129)
(2.07605 0 -0.00282237 2.54836 0 0.00389107)
(2.04829 0 -0.00310702 2.56233 0 0.00395147)
(2.01361 0 -0.00385475 2.49976 0 0.0038047)
(2.03322 0 -0.00437594 2.46214 0 0.00379394)
(2.0255 0 -0.00450263 2.41688 0 0.00378893)
(1.99539 0 -0.00480091 2.36616 0 0.00373882)
(2.01471 0 -0.0053038 2.35581 0 0.00381453)
(2.00914 0 -0.00578 2.36001 0 0.00374819)
(1.99595 0 -0.00611172 2.335 0 0.00374849)
(1.95163 0 -0.00642 2.28978 0 0.00363986)
(1.94571 0 -0.00713246 2.26016 0 0.00364663)
(1.96386 0 -0.00751111 2.25729 0 0.003643)
(1.96151 0 -0.00771962 2.21862 0 0.00356534)
(1.91162 0 -0.00785869 2.14641 0 0.00344344)
(1.87405 0 -0.00801205 2.11375 0 0.00336058)
(1.87641 0 -0.00839204 2.08219 0 0.00335781)
(1.84359 0 -0.00858775 2.06583 0 0.00334245)
(1.81837 0 -0.00877748 2.0292 0 0.00333581)
(1.80029 0 -0.00926616 2.00153 0 0.00325625)
(1.7744 0 -0.00947724 1.95236 0 0.00317589)
(1.76766 0 -0.00972995 1.91559 0 0.00314926)
(1.75412 0 -0.00976963 1.88372 0 0.00312722)
(1.72006 0 -0.0101064 1.86458 0 0.00310932)
(1.6992 0 -0.0100904 1.83544 0 0.00306247)
(1.66707 0 -0.0102665 1.80038 0 0.00299956)
(1.62408 0 -0.0102857 1.76623 0 0.00295454)
(1.57206 0 -0.0103905 1.7205 0 0.00286885)
(1.55065 0 -0.0106159 1.69295 0 0.00283973)
(1.5435 0 -0.0106919 1.65845 0 0.00280062)
(1.53032 0 -0.010787 1.62554 0 0.00274042)
(1.51986 0 -0.0108627 1.59561 0 0.00271993)
(1.5137 0 -0.0108743 1.56787 0 0.00270421)
(1.4996 0 -0.0109741 1.54382 0 0.00267027)
(1.48967 0 -0.010998 1.52207 0 0.00264251)
(1.47347 0 -0.0109637 1.50039 0 0.00260592)
(1.44957 0 -0.0110806 1.47593 0 0.00257754)
(1.43281 0 -0.0112491 1.45103 0 0.00255815)
(1.4261 0 -0.0113549 1.43339 0 0.00252663)
(1.4158 0 -0.0114025 1.40806 0 0.00248243)
(1.40863 0 -0.0114631 1.38242 0 0.00245765)
(1.40091 0 -0.0114107 1.35347 0 0.00241735)
(1.38866 0 -0.0114542 1.33106 0 0.0024111)
(1.38442 0 -0.0115112 1.30994 0 0.00238043)
(1.37725 0 -0.0116217 1.28853 0 0.00237101)
(1.36685 0 -0.0116201 1.26437 0 0.00232417)
(1.35334 0 -0.0114904 1.23354 0 0.00226978)
(1.33958 0 -0.0114887 1.20387 0 0.00223769)
(1.33752 0 -0.011523 1.18026 0 0.00221925)
(1.33313 0 -0.0115077 1.16252 0 0.00219842)
(1.33286 0 -0.0115939 1.1418 0 0.00217802)
(1.33345 0 -0.0115828 1.12449 0 0.00216578)
(1.3303 0 -0.0116106 1.10618 0 0.00213796)
(1.3294 0 -0.0116135 1.08727 0 0.00212092)
(1.32726 0 -0.011649 1.07122 0 0.00211512)
(1.32366 0 -0.011645 1.05859 0 0.00210791)
(1.31536 0 -0.0116551 1.0436 0 0.00210362)
(1.31355 0 -0.0116786 1.02454 0 0.00209973)
(1.31088 0 -0.0117252 1.01004 0 0.00209077)
(1.31043 0 -0.0117928 0.991971 0 0.00206044)
(1.30534 0 -0.0117677 0.976636 0 0.00204562)
(1.30187 0 -0.0118338 0.964183 0 0.00203642)
(1.29924 0 -0.0117898 0.950706 0 0.00202047)
(1.29555 0 -0.0117476 0.937658 0 0.00200935)
(1.29291 0 -0.0117751 0.927016 0 0.00199911)
(1.28964 0 -0.0118002 0.917583 0 0.00198962)
(1.28503 0 -0.0118446 0.910148 0 0.00197424)
(1.28197 0 -0.0118558 0.901088 0 0.00195891)
(1.27882 0 -0.0117992 0.894078 0 0.00195186)
(1.27632 0 -0.011807 0.88318 0 0.00193986)
(1.27263 0 -0.0118538 0.868735 0 0.00193185)
(1.27321 0 -0.0119082 0.856656 0 0.00192018)
(1.27085 0 -0.0118503 0.845288 0 0.00190499)
(1.26477 0 -0.0117439 0.831394 0 0.00189194)
(1.25639 0 -0.0116879 0.82119 0 0.00186997)
(1.25066 0 -0.0116191 0.809539 0 0.00185249)
(1.24945 0 -0.0116447 0.799831 0 0.00184766)
(1.25441 0 -0.0118034 0.793257 0 0.00185772)
(1.26114 0 -0.0118881 0.787844 0 0.00186429)
(1.2575 0 -0.0117491 0.780043 0 0.00184916)
(1.251 0 -0.0117076 0.773941 0 0.00183744)
(1.24741 0 -0.0116893 0.766526 0 0.00182553)
(1.24656 0 -0.011715 0.762227 0 0.00182942)
(1.24899 0 -0.0117977 0.757352 0 0.00183146)
(1.24906 0 -0.0117806 0.748008 0 0.00181945)
(1.24491 0 -0.0117662 0.743179 0 0.00181684)
(1.24637 0 -0.0118642 0.740476 0 0.001817)
(1.24891 0 -0.011881 0.734626 0 0.0018151)
(1.25097 0 -0.011943 0.72704 0 0.00181595)
(1.25392 0 -0.0119871 0.720512 0 0.00180498)
(1.25176 0 -0.0119133 0.713422 0 0.00179628)
(1.25293 0 -0.0119809 0.709663 0 0.00180297)
(1.25628 0 -0.0120991 0.706007 0 0.00181838)
(1.26329 0 -0.0122414 0.705978 0 0.00182738)
(1.26452 0 -0.0122015 0.702171 0 0.00182711)
(9.83663 0 -0.311929 2.01937 0 0.0522473)
(8.37891 0 -0.233453 1.98561 0 0.0403593)
(6.83653 0 -0.198651 1.65986 0 0.0347371)
(6.52651 0 -0.192728 1.54825 0 0.0330216)
(6.50291 0 -0.1906 1.50167 0 0.0323575)
(6.55924 0 -0.190328 1.48567 0 0.0321448)
(6.6344 0 -0.190684 1.48179 0 0.0320867)
(6.70619 0 -0.191608 1.48914 0 0.0322836)
(6.78221 0 -0.193151 1.49924 0 0.032612)
(6.85148 0 -0.194806 1.50941 0 0.0329513)
(6.93205 0 -0.197268 1.52315 0 0.0333429)
(6.98761 0 -0.198477 1.52989 0 0.0335537)
(7.02736 0 -0.199428 1.53512 0 0.0336174)
(7.05864 0 -0.200509 1.54576 0 0.0338832)
(7.09239 0 -0.202117 1.55263 0 0.0341746)
(7.13283 0 -0.203026 1.55678 0 0.0343029)
(7.15497 0 -0.203431 1.55815 0 0.0343705)
(7.17466 0 -0.203928 1.55759 0 0.0343911)
(7.19947 0 -0.204245 1.55919 0 0.0344274)
(7.22359 0 -0.204846 1.56099 0 0.0344876)
(7.23582 0 -0.204712 1.56155 0 0.034422)
(7.23032 0 -0.204478 1.5575 0 0.0343433)
(7.24312 0 -0.204988 1.55621 0 0.0344136)
(7.26312 0 -0.20527 1.55947 0 0.0344513)
(7.26903 0 -0.205361 1.56147 0 0.034515)
(7.27032 0 -0.205652 1.56099 0 0.0345138)
(7.27693 0 -0.205777 1.55727 0 0.0344636)
(7.28332 0 -0.205882 1.55816 0 0.0345526)
(7.29345 0 -0.206071 1.55706 0 0.0345793)
(7.29816 0 -0.206005 1.55422 0 0.034565)
(7.31061 0 -0.206134 1.55328 0 0.0345321)
(7.31558 0 -0.206098 1.55375 0 0.0344989)
(7.33249 0 -0.206652 1.5495 0 0.034456)
(7.3415 0 -0.206467 1.5442 0 0.0343701)
(7.34144 0 -0.206158 1.5445 0 0.0343407)
(7.33154 0 -0.205788 1.54904 0 0.0344336)
(7.32782 0 -0.206093 1.54764 0 0.0344118)
(7.3445 0 -0.206766 1.54634 0 0.0344463)
(7.36041 0 -0.207049 1.54321 0 0.0344925)
(7.3564 0 -0.206464 1.54045 0 0.0343582)
(7.34449 0 -0.205946 1.53848 0 0.034273)
(7.33985 0 -0.205869 1.53796 0 0.0342239)
(7.34667 0 -0.206491 1.53859 0 0.0343579)
(7.34733 0 -0.206565 1.53843 0 0.0344475)
(7.35773 0 -0.207338 1.53629 0 0.0344903)