/*--------------------------------*- C++ -*----------------------------------*\
  =========                 |
  \\      /  F ield         | OpenFOAM: The Open Source CFD Toolbox
   \\    /   O peration     | Website:  https://openfoam.org
    \\  /    A nd           | Version:  7
     \\/     M anipulation  |
\*---------------------------------------------------------------------------*/
FoamFile
{
    version     2.0;
    format      ascii;
    class       volVectorField;
    location    "2000";
    object      U;
}
// * * * * * * * * * * * * * * * * * * * * * * * * * * * * * * * * * * * * * //

dimensions      [0 1 -1 0 0 0 0];

internalField   nonuniform List<vector> 
51626
(
(2.44459 0 -0.00395739)
(2.40864 0 0.000627268)
(2.3656 0 0.000149624)
(2.30818 0 2.84281e-05)
(2.26277 0 3.07767e-06)
(2.22996 0 -3.2353e-06)
(2.20615 0 -7.19692e-06)
(2.18939 0 -8.55893e-06)
(2.17785 0 -7.94294e-06)
(2.16991 0 -6.59458e-06)
(2.16435 0 -5.07462e-06)
(2.16028 0 -3.675e-06)
(2.15711 0 -2.53689e-06)
(2.15447 0 -1.66768e-06)
(2.15214 0 -1.0314e-06)
(2.15 0 -5.7963e-07)
(2.14797 0 -2.66902e-07)
(2.14602 0 -5.7808e-08)
(2.14413 0 7.63972e-08)
(2.1423 0 1.65643e-07)
(2.14052 0 2.19202e-07)
(2.13881 0 2.44496e-07)
(2.13715 0 2.50675e-07)
(2.13556 0 2.44827e-07)
(2.13403 0 2.31547e-07)
(2.13257 0 2.13935e-07)
(2.13117 0 1.94163e-07)
(2.12984 0 1.73722e-07)
(2.12858 0 1.53541e-07)
(2.12738 0 1.34354e-07)
(2.12624 0 1.16425e-07)
(2.12516 0 1.00079e-07)
(2.12414 0 8.52559e-08)
(2.12317 0 7.19191e-08)
(2.12226 0 6.00666e-08)
(2.12139 0 4.96392e-08)
(2.12057 0 4.05253e-08)
(2.1198 0 3.26225e-08)
(2.11907 0 2.5816e-08)
(2.11839 0 2.00007e-08)
(2.11773 0 1.50743e-08)
(2.11712 0 1.09123e-08)
(2.11654 0 7.44152e-09)
(2.11599 0 4.60323e-09)
(2.11547 0 2.30871e-09)
(2.11498 0 5.55384e-10)
(2.11451 0 -7.67601e-10)
(2.11407 0 -1.75172e-09)
(2.11365 0 -2.46022e-09)
(2.11325 0 -2.89822e-09)
(2.11288 0 -3.10192e-09)
(2.11252 0 -3.11317e-09)
(2.11218 0 -2.96053e-09)
(2.11186 0 -2.67028e-09)
(2.11155 0 -2.26435e-09)
(2.11126 0 -1.75838e-09)
(2.11098 0 -1.16786e-09)
(2.11071 0 -5.04233e-10)
(2.11046 0 2.21455e-10)
(2.11021 0 1.0128e-09)
(2.10998 0 1.87813e-09)
(2.10976 0 2.78378e-09)
(2.10954 0 3.7296e-09)
(2.10934 0 4.68672e-09)
(2.10914 0 5.72409e-09)
(2.10895 0 6.79584e-09)
(2.10877 0 7.8758e-09)
(2.10859 0 8.92041e-09)
(2.10842 0 9.98881e-09)
(2.10825 0 1.10956e-08)
(2.10809 0 1.22203e-08)
(2.10793 0 1.33512e-08)
(2.10778 0 1.4474e-08)
(2.10763 0 1.55524e-08)
(2.10748 0 1.6607e-08)
(2.10734 0 1.75024e-08)
(2.1072 0 1.81376e-08)
(2.10707 0 1.85446e-08)
(2.10693 0 1.86877e-08)
(2.1068 0 1.88309e-08)
(2.10667 0 1.9122e-08)
(2.10654 0 1.95027e-08)
(2.10642 0 2.03613e-08)
(2.1063 0 2.12255e-08)
(2.10617 0 2.21397e-08)
(2.10605 0 2.32398e-08)
(2.10593 0 2.4339e-08)
(2.10582 0 2.52951e-08)
(2.1057 0 2.61288e-08)
(2.10558 0 2.68927e-08)
(2.10547 0 2.77452e-08)
(2.10535 0 2.87363e-08)
(2.10523 0 2.97577e-08)
(2.10512 0 3.07311e-08)
(2.105 0 3.16759e-08)
(2.10489 0 3.25996e-08)
(2.10477 0 3.34928e-08)
(2.10465 0 3.43642e-08)
(2.10454 0 3.52075e-08)
(2.10442 0 3.59868e-08)
(2.1043 0 3.67762e-08)
(2.10418 0 3.76907e-08)
(2.10406 0 3.86392e-08)
(2.10394 0 3.95629e-08)
(2.10382 0 4.04497e-08)
(2.1037 0 4.13101e-08)
(2.10357 0 4.22009e-08)
(2.10345 0 4.30514e-08)
(2.10332 0 4.3954e-08)
(2.10319 0 4.49286e-08)
(2.10306 0 4.5947e-08)
(2.10293 0 4.6949e-08)
(2.1028 0 4.79491e-08)
(2.10266 0 4.90529e-08)
(2.10253 0 5.0228e-08)
(2.10239 0 5.13497e-08)
(2.10225 0 5.2463e-08)
(2.1021 0 5.3555e-08)
(2.10196 0 5.46755e-08)
(2.10181 0 5.58426e-08)
(2.10166 0 5.70235e-08)
(2.10151 0 5.82239e-08)
(2.10136 0 5.94832e-08)
(2.1012 0 6.07732e-08)
(2.10104 0 6.2165e-08)
(2.10088 0 6.36275e-08)
(2.10071 0 6.50744e-08)
(2.10054 0 6.65478e-08)
(2.10037 0 6.80508e-08)
(2.1002 0 6.95704e-08)
(2.10002 0 7.11226e-08)
(2.09984 0 7.27049e-08)
(2.09965 0 7.43526e-08)
(2.09946 0 7.60329e-08)
(2.09927 0 7.77522e-08)
(2.09907 0 7.95214e-08)
(2.09887 0 8.13464e-08)
(2.09867 0 8.32479e-08)
(2.09846 0 8.52081e-08)
(2.09825 0 8.72142e-08)
(2.09803 0 8.92728e-08)
(2.09781 0 9.13804e-08)
(2.09758 0 9.35092e-08)
(2.09735 0 9.56942e-08)
(2.09711 0 9.79405e-08)
(2.09687 0 1.00179e-07)
(2.09663 0 1.02454e-07)
(2.09637 0 1.0477e-07)
(2.09612 0 1.07133e-07)
(2.09585 0 1.09548e-07)
(2.09558 0 1.12024e-07)
(2.09531 0 1.14573e-07)
(2.09503 0 1.17206e-07)
(2.09474 0 1.19912e-07)
(2.09445 0 1.22716e-07)
(2.09415 0 1.25627e-07)
(2.09384 0 1.28611e-07)
(2.09353 0 1.31678e-07)
(2.09321 0 1.34841e-07)
(2.09288 0 1.38075e-07)
(2.09255 0 1.41373e-07)
(2.0922 0 1.44726e-07)
(2.09185 0 1.48144e-07)
(2.09149 0 1.51686e-07)
(2.09113 0 1.55362e-07)
(2.09075 0 1.59131e-07)
(2.09037 0 1.62993e-07)
(2.08997 0 1.66959e-07)
(2.08957 0 1.71034e-07)
(2.08916 0 1.7522e-07)
(2.08874 0 1.79519e-07)
(2.08831 0 1.83942e-07)
(2.08786 0 1.88509e-07)
(2.08741 0 1.93198e-07)
(2.08695 0 1.98006e-07)
(2.08647 0 2.02947e-07)
(2.08599 0 2.08029e-07)
(2.08549 0 2.13254e-07)
(2.08498 0 2.18634e-07)
(2.08446 0 2.24176e-07)
(2.08392 0 2.29889e-07)
(2.08338 0 2.35772e-07)
(2.08281 0 2.4183e-07)
(2.08224 0 2.48062e-07)
(2.08165 0 2.54476e-07)
(2.08105 0 2.6107e-07)
(2.08043 0 2.67858e-07)
(2.07979 0 2.74845e-07)
(2.07914 0 2.82045e-07)
(2.07847 0 2.89468e-07)
(2.07779 0 2.97123e-07)
(2.07709 0 3.05013e-07)
(2.07637 0 3.13147e-07)
(2.07563 0 3.21527e-07)
(2.07487 0 3.30162e-07)
(2.07409 0 3.3905e-07)
(2.07329 0 3.4821e-07)
(2.07248 0 3.57646e-07)
(2.07164 0 3.67365e-07)
(2.07077 0 3.77377e-07)
(2.06989 0 3.87691e-07)
(2.06898 0 3.98312e-07)
(2.06805 0 4.09255e-07)
(2.06709 0 4.20525e-07)
(2.06611 0 4.32136e-07)
(2.0651 0 4.4409e-07)
(2.06406 0 4.56407e-07)
(2.063 0 4.69097e-07)
(2.06191 0 4.82171e-07)
(2.06078 0 4.95637e-07)
(2.05963 0 5.09509e-07)
(2.05845 0 5.23795e-07)
(2.05723 0 5.38512e-07)
(2.05598 0 5.53668e-07)
(2.05469 0 5.69277e-07)
(2.05337 0 5.85348e-07)
(2.05201 0 6.01896e-07)
(2.05062 0 6.18929e-07)
(2.04918 0 6.36461e-07)
(2.04771 0 6.54499e-07)
(2.04619 0 6.73057e-07)
(2.04463 0 6.92135e-07)
(2.04303 0 7.1176e-07)
(2.04138 0 7.31884e-07)
(2.03969 0 7.52642e-07)
(2.03795 0 7.73701e-07)
(2.03616 0 7.95864e-07)
(2.03431 0 8.1708e-07)
(2.03242 0 8.42344e-07)
(2.03047 0 8.59076e-07)
(2.02847 0 8.98219e-07)
(2.02641 0 8.83026e-07)
(2.02429 0 1.00114e-06)
(2.02213 0 7.93379e-07)
(2.01985 0 1.36977e-06)
(2.01767 0 7.06044e-08)
(2.01503 0 3.22741e-06)
(2.01324 0 -3.68712e-06)
(2.01108 0 9.03727e-06)
(2.00628 0 1.69707e-05)
(2.00207 -1.60022e-23 4.03433e-06)
(1.99895 0 9.81699e-06)
(1.99536 0 1.12629e-05)
(1.99153 0 1.10655e-05)
(1.98765 0 1.13907e-05)
(1.98367 -1.77839e-23 1.18422e-05)
(1.9796 0 1.22414e-05)
(1.97544 1.8579e-23 1.26557e-05)
(1.97119 0 1.30823e-05)
(1.96685 -1.94251e-23 1.35514e-05)
(1.96242 -1.98685e-23 1.39752e-05)
(1.95788 0 1.4554e-05)
(1.95327 -2.07976e-23 1.49783e-05)
(1.94851 0 1.56701e-05)
(1.94349 0 1.62688e-05)
(1.9382 0 1.67006e-05)
(1.93269 0 1.72791e-05)
(1.92692 0 1.79115e-05)
(1.92091 4.78581e-23 1.85092e-05)
(1.91464 -4.90089e-23 1.91782e-05)
(1.90813 0 1.98019e-05)
(1.90137 1.02822e-22 2.04742e-05)
(1.89437 0 2.11605e-05)
(1.88715 0 2.18634e-05)
(1.87971 0 2.2579e-05)
(1.87205 0 2.33363e-05)
(1.86418 -1.16094e-22 2.40815e-05)
(1.85611 1.18985e-22 2.48997e-05)
(1.84783 1.21962e-22 2.56835e-05)
(1.83937 0 2.65339e-05)
(1.83072 0 2.73933e-05)
(1.8219 1.31437e-22 2.83017e-05)
(1.81291 4.16841e-27 2.92288e-05)
(1.80375 1.38239e-22 3.01961e-05)
(1.79443 1.41804e-22 3.11826e-05)
(1.78495 -1.45473e-22 3.22165e-05)
(1.77534 -4.49517e-27 3.32757e-05)
(1.76554 0 3.44591e-05)
(1.75561 0 3.54731e-05)
(1.74555 0 3.67853e-05)
(1.7353 0 3.80359e-05)
(1.72492 0 3.92537e-05)
(1.71439 0 3.9245e-05)
(1.70369 8.97119e-23 3.86352e-05)
(1.69281 0 3.97224e-05)
(1.68179 -9.46891e-23 4.09872e-05)
(1.67053 -9.73013e-23 4.283e-05)
(1.65911 -1.00008e-22 4.41053e-05)
(1.64739 0 4.64856e-05)
(1.63527 1.05693e-22 4.81623e-05)
(1.6228 5.43389e-23 5.02111e-05)
(1.60988 0 5.19917e-05)
(1.59656 0 5.38493e-05)
(1.58284 0 5.5884e-05)
(1.56869 0 5.79999e-05)
(1.5541 0 6.01875e-05)
(1.53903 0 6.24666e-05)
(1.52348 0 6.48428e-05)
(1.50742 0 6.73155e-05)
(1.49082 7.01624e-23 6.98951e-05)
(1.47368 0 7.25895e-05)
(1.45595 7.43445e-23 7.53986e-05)
(1.43761 -7.65398e-23 7.83408e-05)
(1.41864 7.8808e-23 8.14093e-05)
(1.399 0 8.46153e-05)
(1.37867 5.17756e-27 8.79931e-05)
(1.3575 -8.60835e-23 9.1537e-05)
(1.33549 -8.86638e-23 9.52297e-05)
(1.31263 -2.74669e-27 9.90813e-05)
(1.28892 0 0.000103118)
(1.26429 6.00912e-27 0.000107383)
(1.23871 -6.00916e-27 0.000111855)
(1.21212 6.3831e-27 0.000116551)
(1.18446 1.96551e-28 0.000121508)
(1.15566 -3.18847e-27 0.000126707)
(1.12567 -3.39203e-27 0.000132162)
(1.0944 3.60632e-27 0.000137939)
(1.06178 -3.60671e-27 0.000144025)
(1.02771 3.83629e-27 0.000150451)
(0.992111 -3.83687e-27 0.000157243)
(0.954872 -1.31709e-22 0.000164397)
(0.915885 0 0.000171986)
(0.87503 4.34729e-27 0.000180012)
(0.832178 1.44709e-22 0.00018849)
(0.787195 2.31531e-27 0.000197435)
(0.739938 -1.12112e-27 0.000206876)
(0.690263 3.80977e-29 0.000216794)
(0.638028 3.92913e-29 0.000227176)
(0.583102 1.35464e-27 0.00023795)
(0.525377 1.7502e-22 0.000249048)
(0.464809 -2.71403e-27 0.000260175)
(0.401411 0 0.000271271)
(0.335416 0 0.0002813)
(0.267121 1.53388e-27 0.000290853)
(0.197586 -1.53484e-27 0.000296009)
(0.127423 8.11634e-28 0.000320585)
(0.0602207 -8.12126e-28 0.000448165)
(-0.00520694 8.52524e-28 0.000388574)
(-0.0549186 2.25793e-22 0.000202862)
(-0.138014 1.88142e-18 -0.00365864)
(-0.0453481 1.5266e-17 -0.00427807)
(0.0794377 7.6044e-18 0.0167322)
(0.136542 0 0.0363841)
(0.24003 -7.45404e-18 0.0763377)
(0.351379 1.45895e-17 0.130184)
(0.475032 0 0.199397)
(0.608931 0 0.283066)
(0.754063 1.30609e-17 0.380179)
(0.905454 0 0.486124)
(1.06179 0 0.598955)
(1.23023 0 0.720536)
(1.41098 4.53503e-21 0.846635)
(1.5921 5.20997e-21 0.967126)
(1.77569 7.24447e-18 1.08363)
(1.97548 0 1.20134)
(2.18174 4.35041e-18 1.30849)
(2.366 0 1.38874)
(2.55916 1.0691e-18 1.46696)
(2.81745 -7.84974e-21 1.55901)
(2.97839 -6.61493e-21 1.55173)
(2.88762 0 1.42142)
(2.8895 0 1.37626)
(3.03458 0 1.38825)
(3.10933 1.57222e-17 1.37141)
(3.14792 8.95539e-18 1.34257)
(3.22093 -9.96196e-18 1.33018)
(3.24805 0 1.29351)
(3.20619 -1.18426e-17 1.24556)
(3.32323 0 1.27686)
(3.55396 0 1.33794)
(3.7142 -2.99438e-17 1.35774)
(3.75359 3.26132e-17 1.31781)
(3.70872 8.64227e-18 1.24945)
(3.68998 -8.99002e-18 1.19916)
(3.73677 0 1.17437)
(3.78999 0 1.14989)
(3.80704 0 1.11355)
(3.8047 -1.03898e-17 1.07312)
(3.80751 0 1.03659)
(3.81723 -1.08999e-17 1.00364)
(3.82189 0 0.970328)
(3.81553 -1.13412e-17 0.935658)
(3.80654 2.30347e-17 0.902867)
(3.80482 0 0.874283)
(3.80909 -1.18286e-17 0.848721)
(3.81319 -1.19783e-17 0.824249)
(3.81592 -1.21199e-17 0.80051)
(3.8178 2.45108e-17 0.777427)
(3.81858 0 0.754975)
(3.81901 -8.71535e-23 0.733349)
(3.82041 2.52431e-17 0.712781)
(3.82262 -1.27346e-17 0.693012)
(3.82361 0 0.673514)
(3.8227 1.29493e-17 0.654318)
(3.82255 0 0.636155)
(3.82568 0 0.619412)
(3.83237 0 0.603981)
(3.84458 -6.67092e-18 0.589992)
(3.8605 6.72655e-18 0.576201)
(3.8701 0 0.560314)
(3.86844 0 0.542337)
(3.86658 0 0.525279)
(3.87538 6.93637e-18 0.510429)
(3.88755 0 0.495387)
(3.8901 0 0.478098)
(3.8844 0 0.459926)
(3.88401 7.13224e-18 0.443508)
(3.89452 7.17546e-18 0.428708)
(3.90317 0 0.412494)
(3.89779 7.27325e-18 0.39381)
(3.88775 -1.46209e-17 0.375464)
(3.88902 -7.3436e-18 0.359498)
(3.89916 7.38298e-18 0.344147)
(3.90134 0 0.326637)
(3.88965 0 0.307493)
(3.88065 -3.74599e-18 0.290047)
(3.88923 0 0.274987)
(3.90043 -7.56014e-18 0.258457)
(3.88985 0 0.238247)
(3.86457 0 0.217805)
(3.85581 -3.81856e-18 0.201145)
(3.87246 0 0.186566)
(3.88333 7.69795e-18 0.168685)
(3.86447 0 0.146969)
(3.83489 -1.07876e-23 0.125722)
(3.81726 0 0.106609)
(3.80903 -1.94025e-18 0.0883788)
(3.80085 4.88958e-24 0.0699795)
(3.79099 9.72598e-19 0.0512903)
(3.77979 0 0.0322054)
(3.76656 0 0.0126707)
(3.74943 0 -0.00751561)
(3.72513 -9.7498e-19 -0.0282214)
(3.6983 0 -0.0483569)
(3.68082 1.94514e-18 -0.0674914)
(3.67191 1.94323e-18 -0.0872406)
(3.65093 -1.94231e-18 -0.10928)
(3.6062 0 -0.132204)
(3.5597 0 -0.15331)
(3.53546 0 -0.173432)
(3.51629 0 -0.195698)
(3.47024 -3.81712e-18 -0.220186)
(3.39643 3.79343e-18 -0.244324)
(3.31717 0 -0.266818)
(3.24128 -7.43714e-18 -0.288484)
(3.15909 7.34626e-18 -0.309585)
(3.06513 0 -0.329597)
(2.95818 0 -0.34818)
(2.84057 -6.97735e-18 -0.365215)
(2.69776 -6.8193e-18 -0.381001)
(2.48857 0 -0.391127)
(2.1952 5.82011e-22 -0.386522)
(1.8712 1.21154e-17 -0.365874)
(1.54656 0 -0.335916)
(1.05591 1.05934e-17 -0.279793)
(0.0209699 0 -0.049008)
(-0.643232 0 0.204736)
(-0.497823 -1.47234e-17 0.233673)
(-0.333749 0 0.200896)
(-0.213736 0 0.148337)
(-0.168764 0 0.128012)
(-0.133594 0 0.107664)
(-0.116289 0 0.0966269)
(-0.106422 0 0.0896713)
(-0.0962721 1.2408e-17 0.0809724)
(-0.0911339 0 0.0756188)
(-0.0939164 1.26635e-17 0.0772323)
(-0.0953289 0 0.0778045)
(-0.0963787 -3.01835e-24 0.0771791)
(-0.0993706 -1.31582e-17 0.0771112)
(-0.105723 0 0.0791572)
(-0.115 -1.36319e-17 0.0831405)
(-0.124853 -1.38625e-17 0.0870123)
(-0.135291 0 0.0903653)
(-0.147233 0 0.0937487)
(-0.16077 0 0.0972454)
(-0.175603 1.49191e-17 0.100575)
(-0.191556 -1.5184e-17 0.103562)
(-0.208424 -3.08878e-17 0.106023)
(-0.226111 0 0.107869)
(-0.24486 -7.14954e-23 0.109216)
(-0.264835 7.26178e-23 0.11023)
(-0.286663 1.63853e-17 0.111233)
(-0.310328 -1.65773e-17 0.112373)
(-0.333776 0 0.112816)
(-0.357141 0 0.112432)
(-0.382891 1.70607e-17 0.112283)
(-0.410273 0 0.112473)
(-0.436847 -1.56918e-23 0.112102)
(-0.463307 0 0.111211)
(-0.490708 8.74156e-18 0.110317)
(-0.519339 8.77842e-18 0.10966)
(-0.549315 -8.80782e-18 0.109459)
(-0.578843 4.0757e-24 0.109331)
(-0.607188 0 0.108799)
(-0.635156 0 0.108032)
(-0.663155 0 0.107179)
(-0.691964 -4.43363e-18 0.106522)
(-0.720934 -1.19154e-23 0.106083)
(-0.74929 -1.45545e-23 0.105549)
(-0.775991 0 0.104584)
(-0.800314 0 0.102652)
(-0.8248 8.79294e-18 0.100119)
(-0.849455 -4.38184e-18 0.0973564)
(-0.870568 0 0.0933942)
(-0.888188 4.34561e-18 0.0874955)
(-0.904468 0 0.080022)
(-0.919443 0 0.0711197)
(-0.932956 0 0.0608086)
(-0.946733 2.12961e-18 0.049467)
(-0.962432 0 0.0379675)
(-0.979075 0 0.0267557)
(-0.999514 -5.22689e-19 0.0165762)
(-1.03313 2.59549e-19 0.0101761)
(-1.06909 0 0.00951822)
(-1.08948 0 0.0100175)
(-1.10592 0 0.0100283)
(-1.12853 0 0.0130124)
(-1.11528 4.87147e-19 0.01369)
(-1.09972 1.20485e-19 0.00298109)
(-1.11922 0 4.20282e-05)
(-1.12618 0 4.75091e-05)
(-1.12873 0 2.5696e-05)
(-1.12629 0 3.41205e-05)
(-1.12216 0 2.70425e-05)
(-1.11524 0 2.9726e-05)
(-1.1066 0 2.68478e-05)
(-1.09583 0 2.81181e-05)
(-1.08333 0 2.79302e-05)
(-1.06899 0 2.90692e-05)
(-1.05295 0 2.95482e-05)
(-1.03522 0 3.05231e-05)
(-1.01589 0 3.13009e-05)
(-0.995 0 3.22744e-05)
(-0.972631 0 3.32235e-05)
(-0.948841 0 3.42506e-05)
(-0.923703 0 3.52966e-05)
(-0.897275 0 3.63599e-05)
(-0.869621 0 3.74323e-05)
(-0.840801 0 3.84886e-05)
(-0.810879 0 3.95322e-05)
(-0.779917 0 4.05448e-05)
(-0.747985 0 4.15224e-05)
(-0.715151 0 4.24643e-05)
(-0.681486 0 4.33504e-05)
(-0.647061 0 4.41965e-05)
(-0.611947 0 4.49658e-05)
(-0.576215 0 4.56935e-05)
(-0.539933 0 4.63239e-05)
(-0.503171 0 4.6911e-05)
(-0.465994 0 4.7383e-05)
(-0.42847 0 4.78119e-05)
(-0.390662 0 4.81113e-05)
(-0.352635 0 4.83704e-05)
(-0.314453 0 4.84896e-05)
(-0.276177 0 4.85734e-05)
(-0.237866 0 4.85182e-05)
(-0.199577 0 4.84242e-05)
(-0.161365 0 4.81848e-05)
(-0.12328 0 4.79298e-05)
(-0.0853702 0 4.75388e-05)
(-0.0476826 0 4.70471e-05)
(-0.0102603 0 9.04306e-06)
(0.0268577 0 -2.75451e-05)
(0.0636334 0 8.48268e-06)
(0.10003 0 4.47364e-05)
(0.136019 0 4.47343e-05)
(0.17157 0 4.41745e-05)
(0.206659 0 4.32951e-05)
(0.241263 0 4.23133e-05)
(0.275365 0 4.11502e-05)
(0.308943 0 3.99797e-05)
(0.341982 0 3.86876e-05)
(0.374461 0 3.74263e-05)
(0.406368 0 3.60731e-05)
(0.437686 0 3.47716e-05)
(0.468406 0 3.33984e-05)
(0.498519 0 3.20919e-05)
(0.528018 0 3.07311e-05)
(0.556901 0 2.94457e-05)
(0.585168 0 2.81174e-05)
(0.612818 0 2.68725e-05)
(0.639857 0 2.55973e-05)
(0.666289 0 2.44074e-05)
(0.692121 0 2.31963e-05)
(0.717359 0 2.20719e-05)
(0.74201 0 2.09338e-05)
(0.766082 0 1.9881e-05)
(0.789582 0 1.88205e-05)
(0.812517 0 1.71187e-05)
(0.834897 0 1.45418e-05)
(0.85673 0 1.2893e-05)
(0.878025 0 1.21539e-05)
(0.898794 0 1.14207e-05)
(0.919047 0 1.06825e-05)
(0.938796 0 1.00166e-05)
(0.958054 0 9.34582e-06)
(0.976832 0 8.74512e-06)
(0.995141 0 8.1419e-06)
(1.01299 0 7.60712e-06)
(1.03039 0 7.07176e-06)
(1.04736 0 6.60644e-06)
(1.06388 0 6.1431e-06)
(1.07998 0 5.75689e-06)
(1.09564 0 5.37184e-06)
(1.11087 0 5.08785e-06)
(1.12565 0 4.79345e-06)
(1.13996 0 4.6689e-06)
(1.15379 0 4.48184e-06)
(1.16707 0 4.64459e-06)
(1.17977 0 4.52329e-06)
(1.19172 0 5.22185e-06)
(1.20293 0 4.84855e-06)
(1.21315 -3.17262e-23 7.72757e-06)
(1.22278 0 6.1296e-06)
(1.23016 0 1.62034e-05)
(1.23664 1.29197e-22 8.91455e-06)
(1.23598 0 4.85082e-05)
(1.23639 1.2856e-22 -1.07918e-05)
(1.20369 1.28252e-22 0.000211894)
(1.20302 0 -0.000231057)
(0.905078 0 0.00123222)
(7.24104 0 -0.01361)
(7.29582 0 -0.000529882)
(7.18284 0 0.00225037)
(7.01919 0 0.00211628)
(6.88823 0 0.00154004)
(6.79287 0 0.00108826)
(6.72367 0 0.000761093)
(6.67459 0 0.000520754)
(6.64055 0 0.000351381)
(6.61699 0 0.000238884)
(6.60036 0 0.000168397)
(6.58811 0 0.000126326)
(6.57855 0 0.000102126)
(6.57059 0 8.85826e-05)
(6.56358 0 8.10862e-05)
(6.55715 0 7.68359e-05)
(6.55108 0 7.41934e-05)
(6.54526 0 7.22258e-05)
(6.53965 0 7.04363e-05)
(6.53421 0 6.85873e-05)
(6.52895 0 6.65848e-05)
(6.52386 0 6.44094e-05)
(6.51896 0 6.2078e-05)
(6.51425 0 5.96277e-05)
(6.50973 0 5.70995e-05)
(6.50541 0 5.4532e-05)
(6.50128 0 5.19593e-05)
(6.49736 0 4.94102e-05)
(6.49362 0 4.69077e-05)
(6.49007 0 4.44703e-05)
(6.48671 0 4.21117e-05)
(6.48352 0 3.9842e-05)
(6.4805 0 3.76673e-05)
(6.47764 0 3.55908e-05)
(6.47494 0 3.36145e-05)
(6.47239 0 3.17384e-05)
(6.46998 0 2.99617e-05)
(6.4677 0 2.82821e-05)
(6.46554 0 2.6697e-05)
(6.46351 0 2.52031e-05)
(6.46158 0 2.37968e-05)
(6.45976 0 2.24741e-05)
(6.45805 0 2.12311e-05)
(6.45642 0 2.00639e-05)
(6.45488 0 1.89687e-05)
(6.45343 0 1.79415e-05)
(6.45205 0 1.69785e-05)
(6.45075 0 1.60761e-05)
(6.44951 0 1.52308e-05)
(6.44834 0 1.44393e-05)
(6.44723 0 1.36987e-05)
(6.44618 0 1.30057e-05)
(6.44517 0 1.23574e-05)
(6.44422 0 1.17512e-05)
(6.44331 0 1.11845e-05)
(6.44245 0 1.0655e-05)
(6.44163 0 1.01604e-05)
(6.44084 0 9.69864e-06)
(6.44009 0 9.26774e-06)
(6.43938 0 8.86579e-06)
(6.43869 0 8.49092e-06)
(6.43803 0 8.14161e-06)
(6.4374 0 7.81635e-06)
(6.4368 0 7.5137e-06)
(6.43622 0 7.23279e-06)
(6.43566 0 6.97239e-06)
(6.43512 0 6.73115e-06)
(6.4346 0 6.50765e-06)
(6.43409 0 6.30108e-06)
(6.4336 0 6.11076e-06)
(6.43313 0 5.93581e-06)
(6.43267 0 5.7754e-06)
(6.43222 0 5.62856e-06)
(6.43178 0 5.4943e-06)
(6.43136 0 5.37173e-06)
(6.43094 0 5.25895e-06)
(6.43054 0 5.15377e-06)
(6.43014 0 5.05444e-06)
(6.42974 0 4.95942e-06)
(6.42936 0 4.8694e-06)
(6.42898 0 4.78539e-06)
(6.42861 0 4.7082e-06)
(6.42825 0 4.64055e-06)
(6.42789 0 4.58105e-06)
(6.42753 0 4.52943e-06)
(6.42718 0 4.48633e-06)
(6.42684 0 4.45074e-06)
(6.42649 0 4.421e-06)
(6.42615 0 4.39603e-06)
(6.42581 0 4.37549e-06)
(6.42547 0 4.36025e-06)
(6.42513 0 4.35108e-06)
(6.4248 0 4.34761e-06)
(6.42446 0 4.34909e-06)
(6.42412 0 4.35511e-06)
(6.42379 0 4.36535e-06)
(6.42345 0 4.37951e-06)
(6.42311 0 4.39734e-06)
(6.42277 0 4.41852e-06)
(6.42243 0 4.44254e-06)
(6.42209 0 4.46966e-06)
(6.42174 0 4.50075e-06)
(6.42139 0 4.53573e-06)
(6.42104 0 4.57415e-06)
(6.42069 0 4.61554e-06)
(6.42034 0 4.65967e-06)
(6.41998 0 4.7065e-06)
(6.41961 0 4.75563e-06)
(6.41925 0 4.80749e-06)
(6.41887 0 4.86262e-06)
(6.4185 0 4.92115e-06)
(6.41812 0 4.98278e-06)
(6.41774 0 5.04748e-06)
(6.41735 0 5.11594e-06)
(6.41695 0 5.18825e-06)
(6.41655 0 5.2637e-06)
(6.41615 0 5.34207e-06)
(6.41573 0 5.42314e-06)
(6.41532 0 5.50708e-06)
(6.41489 0 5.59402e-06)
(6.41446 0 5.68385e-06)
(6.41402 0 5.77665e-06)
(6.41358 0 5.87276e-06)
(6.41312 0 5.9723e-06)
(6.41266 0 6.07591e-06)
(6.41219 0 6.18365e-06)
(6.41172 0 6.29504e-06)
(6.41123 0 6.41003e-06)
(6.41074 0 6.52851e-06)
(6.41023 0 6.65037e-06)
(6.40972 0 6.77566e-06)
(6.4092 0 6.90449e-06)
(6.40867 0 7.03725e-06)
(6.40812 0 7.17398e-06)
(6.40757 0 7.31479e-06)
(6.40701 0 7.45982e-06)
(6.40643 0 7.60927e-06)
(6.40585 0 7.76341e-06)
(6.40525 0 7.92236e-06)
(6.40464 0 8.08616e-06)
(6.40401 0 8.25488e-06)
(6.40338 0 8.42844e-06)
(6.40273 0 8.60665e-06)
(6.40206 0 8.78963e-06)
(6.40138 0 8.97743e-06)
(6.40069 0 9.16961e-06)
(6.39999 0 9.3663e-06)
(6.39926 0 9.56756e-06)
(6.39853 0 9.77352e-06)
(6.39777 0 9.98429e-06)
(6.397 0 1.02001e-05)
(6.39622 0 1.04213e-05)
(6.39541 0 1.06483e-05)
(6.39459 0 1.08811e-05)
(6.39375 0 1.11203e-05)
(6.39289 0 1.13662e-05)
(6.39202 0 1.16189e-05)
(6.39112 0 1.18784e-05)
(6.3902 0 1.21451e-05)
(6.38927 0 1.24189e-05)
(6.38831 0 1.26999e-05)
(6.38733 0 1.29879e-05)
(6.38633 0 1.32831e-05)
(6.3853 0 1.3586e-05)
(6.38425 0 1.38971e-05)
(6.38318 0 1.42165e-05)
(6.38209 0 1.45444e-05)
(6.38096 0 1.4881e-05)
(6.37982 0 1.52267e-05)
(6.37864 0 1.55817e-05)
(6.37744 0 1.59462e-05)
(6.37621 0 1.63206e-05)
(6.37495 0 1.67055e-05)
(6.37366 0 1.71009e-05)
(6.37234 0 1.75071e-05)
(6.37099 0 1.79244e-05)
(6.3696 0 1.83531e-05)
(6.36819 0 1.87936e-05)
(6.36674 0 1.92464e-05)
(6.36525 0 1.9712e-05)
(6.36373 0 2.01908e-05)
(6.36217 0 2.06833e-05)
(6.36057 0 2.11899e-05)
(6.35894 0 2.1711e-05)
(6.35726 0 2.2247e-05)
(6.35554 0 2.27984e-05)
(6.35378 0 2.33656e-05)
(6.35198 0 2.39491e-05)
(6.35013 0 2.45495e-05)
(6.34823 0 2.51673e-05)
(6.34628 0 2.58032e-05)
(6.34429 0 2.64577e-05)
(6.34225 0 2.71316e-05)
(6.34015 0 2.78253e-05)
(6.338 0 2.85396e-05)
(6.33579 0 2.9275e-05)
(6.33353 0 3.00322e-05)
(6.33121 0 3.0812e-05)
(6.32883 0 3.1615e-05)
(6.32638 0 3.24419e-05)
(6.32388 0 3.32936e-05)
(6.3213 0 3.41706e-05)
(6.31866 0 3.5074e-05)
(6.31595 0 3.60044e-05)
(6.31316 0 3.69628e-05)
(6.3103 0 3.795e-05)
(6.30737 0 3.89669e-05)
(6.30435 0 4.00145e-05)
(6.30126 0 4.10936e-05)
(6.29808 0 4.22053e-05)
(6.29481 0 4.33506e-05)
(6.29146 0 4.45306e-05)
(6.28801 0 4.57463e-05)
(6.28447 0 4.69987e-05)
(6.28083 0 4.82891e-05)
(6.27709 0 4.96186e-05)
(6.27325 0 5.09883e-05)
(6.2693 0 5.23994e-05)
(6.26524 0 5.38532e-05)
(6.26107 0 5.53509e-05)
(6.25678 0 5.68937e-05)
(6.25237 0 5.84827e-05)
(6.24784 0 6.01194e-05)
(6.24317 0 6.18048e-05)
(6.23838 0 6.35402e-05)
(6.23346 0 6.53264e-05)
(6.22839 0 6.71655e-05)
(6.22318 0 6.90553e-05)
(6.21782 0 7.10034e-05)
(6.21231 0 7.29922e-05)
(6.20665 0 7.5066e-05)
(6.20083 0 7.71108e-05)
(6.19482 0 7.94001e-05)
(6.1887 0 8.1255e-05)
(6.18228 0 8.42513e-05)
(6.17602 0 8.46756e-05)
(6.16875 0 9.08022e-05)
(6.16324 0 6.23319e-05)
(6.15626 3.89162e-23 0.000122751)
(6.14271 0 0.000166386)
(6.1293 2.03182e-23 0.000109141)
(6.11788 0 0.000115124)
(6.10598 0 0.000126349)
(6.09348 0 0.000131035)
(6.08072 0 0.000134796)
(6.06771 1.13087e-22 0.000138836)
(6.05444 2.79191e-27 0.000142731)
(6.04093 -2.36462e-23 0.000146571)
(6.02716 0 0.000150488)
(6.01314 2.47414e-23 0.000154572)
(5.99885 2.53157e-23 0.0001587)
(5.98427 0 0.000163173)
(5.96947 2.65201e-23 0.000167342)
(5.95425 0 0.000173153)
(5.93833 -2.22387e-22 0.000178964)
(5.92166 0 0.000183736)
(5.90431 0 0.00018881)
(5.88624 0 0.000194243)
(5.86747 -6.12191e-23 0.000199774)
(5.84797 -1.88207e-22 0.000205686)
(5.82775 2.57198e-22 0.000211472)
(5.80685 -1.31824e-22 0.000217376)
(5.78526 0 0.000223356)
(5.76302 -2.77156e-22 0.000229406)
(5.74015 2.84227e-22 0.000235552)
(5.71666 0 0.000241863)
(5.69258 1.49518e-22 0.000248247)
(5.6679 -1.53395e-22 0.000254948)
(5.64265 -1.57394e-22 0.000261611)
(5.61686 -3.23037e-22 0.000268526)
(5.59055 3.31545e-22 0.000275596)
(5.56373 -1.7016e-22 0.000282928)
(5.53643 -3.49375e-22 0.000290417)
(5.50866 1.79359e-22 0.000298215)
(5.48041 1.84179e-22 0.000306181)
(5.45175 1.89153e-22 0.000314337)
(5.42266 3.88575e-22 0.000323006)
(5.39309 0 0.00033211)
(5.36315 -4.10125e-22 0.000340721)
(5.33281 4.21429e-22 0.000350738)
(5.302 4.33087e-22 0.000360745)
(5.2708 0 0.000370711)
(5.23916 0 0.000382202)
(5.20708 -1.1762e-22 0.000393888)
(5.17452 0 0.000405887)
(5.14154 1.24385e-22 0.000417894)
(5.10793 -3.83811e-22 0.000432012)
(5.07383 6.58085e-22 0.000445667)
(5.03893 -5.41662e-22 0.00046649)
(5.0029 -1.39358e-22 0.000486572)
(4.96582 2.15146e-22 0.000505936)
(4.92758 0 0.000523379)
(4.88819 0 0.000540114)
(4.84765 0 0.000557592)
(4.8059 -3.22361e-22 0.000575986)
(4.76288 0 0.000595128)
(4.71854 0 0.000615044)
(4.67281 0 0.000635795)
(4.62565 -3.6303e-22 0.000657423)
(4.57698 -4.67625e-22 0.000679952)
(4.52674 -2.89959e-27 0.000703438)
(4.47485 -4.968e-22 0.00072795)
(4.42124 1.02434e-22 0.000753538)
(4.36583 3.16861e-22 0.000780316)
(4.30853 -4.35681e-22 0.000808328)
(4.24925 -3.37862e-27 0.000839403)
(4.18758 1.15891e-22 0.000873317)
(4.12351 1.19572e-22 0.000907451)
(4.05704 0 0.000941981)
(3.98811 0 0.000977827)
(3.9166 0 0.00101548)
(3.84236 0 0.00105516)
(3.76523 0 0.00109697)
(3.68505 0 0.00114109)
(3.60162 0 0.00118769)
(3.51475 0 0.00123694)
(3.42422 0 0.0012891)
(3.32979 5.11795e-27 0.00134435)
(3.23121 5.13125e-27 0.00140296)
(3.1282 -5.47309e-27 0.00146524)
(3.02045 1.82644e-22 0.00153142)
(2.90761 0 0.00160183)
(2.78933 0 0.00167673)
(2.66521 -2.02431e-22 0.00175646)
(2.53482 1.52427e-27 0.00184121)
(2.39771 3.31269e-27 0.00193113)
(2.25338 5.38234e-29 0.00202623)
(2.10136 9.31633e-22 0.00212625)
(1.94115 0 0.0022305)
(1.77229 -2.5008e-22 0.00233763)
(1.59445 1.03664e-21 0.00244512)
(1.40743 0 0.00254904)
(1.21153 0 0.0026421)
(1.00726 0 0.00271523)
(0.796948 0 0.00275043)
(0.582195 0 0.00272758)
(0.371744 1.22891e-27 0.00258297)
(0.164097 -1.31097e-21 0.0023639)
(-0.00826022 -3.3594e-22 0.00235171)
(-0.248001 -1.4019e-18 -0.00750455)
(-0.0150417 -5.64548e-18 -0.00625826)
(0.306393 0 0.0562206)
(0.470281 0 0.115938)
(0.741325 0 0.230081)
(1.03744 2.12678e-17 0.384231)
(1.36393 0 0.580212)
(1.71612 -1.97101e-17 0.815984)
(2.09598 -1.8741e-17 1.08856)
(2.49297 0 1.38581)
(2.9035 0 1.70223)
(3.34304 -1.50255e-17 2.04179)
(3.81492 1.34962e-17 2.39354)
(4.29537 1.18064e-17 2.73173)
(4.78541 -9.99102e-18 3.059)
(5.31269 0 3.38692)
(5.86336 0 3.68708)
(6.37557 0 3.91775)
(6.90032 -1.41797e-18 4.1365)
(7.56218 2.01344e-18 4.38283)
(8.07232 7.52501e-18 4.39035)
(8.06696 0 4.08978)
(8.12805 0 3.9651)
(8.4507 0 3.97624)
(8.69937 -9.87158e-18 3.9372)
(8.86198 1.11559e-17 3.86547)
(9.06905 0 3.82776)
(9.19221 0 3.73422)
(9.16447 0 3.61231)
(9.39898 0 3.67201)
(9.89221 -1.62363e-17 3.81188)
(10.3248 3.55974e-17 3.86724)
(10.5287 -1.92926e-17 3.77599)
(10.5254 -1.0168e-17 3.60379)
(10.5189 0 3.46392)
(10.624 0 3.3841)
(10.7616 0 3.31057)
(10.8404 0 3.21112)
(10.8697 1.19186e-17 3.09976)
(10.8953 0 2.99591)
(10.9303 0 2.90098)
(10.9562 0 2.80625)
(10.9589 1.28537e-17 2.70875)
(10.9503 -1.30295e-17 2.61566)
(10.951 0 2.53295)
(10.9636 0 2.45851)
(10.978 2.69936e-17 2.38772)
(10.99 1.36429e-17 2.31928)
(10.9997 -2.7567e-17 2.25279)
(11.0067 0 2.18816)
(11.012 2.80923e-17 2.12582)
(11.0186 -1.41692e-17 2.06634)
(11.0267 0 2.00915)
(11.0328 0 1.95295)
(11.0348 -1.45206e-17 1.89772)
(11.0371 -1.46275e-17 1.84518)
(11.0452 0 1.79635)
(11.061 -7.41784e-18 1.75106)
(11.0889 7.47016e-18 1.70961)
(11.1265 2.06622e-23 1.66896)
(11.155 0 1.62339)
(11.1611 7.65519e-18 1.57244)
(11.162 0 1.52327)
(11.1808 -7.75458e-18 1.47943)
(11.2097 0 1.43552)
(11.2232 0 1.38626)
(11.2182 0 1.33446)
(11.2187 7.96576e-18 1.28666)
(11.24 -8.01031e-18 1.24301)
(11.2626 0 1.19624)
(11.2595 8.11676e-18 1.14324)
(11.2424 8.15798e-18 1.0906)
(11.2426 8.19368e-18 1.04372)
(11.2624 -8.23561e-18 0.998751)
(11.272 -8.28414e-18 0.948634)
(11.2538 0 0.894103)
(11.2345 0 0.843406)
(11.2468 -4.19277e-18 0.798845)
(11.2708 4.21568e-18 0.751047)
(11.2572 -4.23756e-18 0.693813)
(11.2084 0 0.635258)
(11.182 8.52182e-18 0.586056)
(11.2067 0 0.542769)
(11.2317 -6.94247e-23 0.49154)
(11.2023 2.1566e-18 0.42992)
(11.1417 -4.32329e-18 0.368637)
(11.0954 -2.16473e-18 0.312761)
(11.0687 2.16835e-18 0.25956)
(11.0459 1.08613e-18 0.206125)
(11.0209 -2.01356e-23 0.151892)
(10.9927 0 0.0965108)
(10.96 0 0.0398255)
(10.9188 0 -0.0187248)
(10.862 1.14872e-23 -0.0789177)
(10.7969 0 -0.137848)
(10.7472 -1.093e-18 -0.193975)
(10.716 0 -0.251395)
(10.6655 0 -0.315217)
(10.5663 0 -0.382442)
(10.4537 0 -0.445222)
(10.3792 -4.34863e-18 -0.504533)
(10.3204 0 -0.569238)
(10.2133 4.33295e-18 -0.64116)
(10.0434 -4.31716e-18 -0.713663)
(9.84908 8.58229e-18 -0.782027)
(9.65387 -8.5183e-18 -0.847803)
(9.44373 -8.44557e-18 -0.912248)
(9.2055 0 -0.974141)
(8.9335 8.25983e-18 -1.03243)
(8.63103 8.14267e-18 -1.08675)
(8.26759 0 -1.13839)
(7.75307 -7.86265e-18 -1.17807)
(7.03125 1.09604e-21 -1.18211)
(6.19393 0 -1.14033)
(5.30141 0 -1.06554)
(3.94672 -1.35709e-17 -0.92282)
(1.09327 0 -0.316798)
(-1.16921 2.34941e-17 0.445324)
(-1.25722 2.17227e-17 0.631514)
(-0.923443 0 0.573945)
(-0.606995 -1.95621e-17 0.430927)
(-0.481377 0 0.373587)
(-0.386167 0 0.316688)
(-0.338609 0 0.285478)
(-0.311003 -1.84393e-17 0.265497)
(-0.284193 -1.85523e-17 0.24096)
(-0.271697 0 0.226176)
(-0.279827 -1.89363e-17 0.230953)
(-0.284733 1.90784e-17 0.232947)
(-0.289383 -1.93232e-17 0.231706)
(-0.300079 1.96644e-17 0.232175)
(-0.32023 0 0.238736)
(-0.348351 2.03529e-17 0.250797)
(-0.378358 2.06862e-17 0.262562)
(-0.410478 0 0.272886)
(-0.447076 0 0.283276)
(-0.488311 0 0.293936)
(-0.533372 0 0.304052)
(-0.581768 0 0.31311)
(-0.632962 4.5851e-17 0.320583)
(-0.686771 0 0.326231)
(-0.743819 -4.72071e-17 0.330375)
(-0.804581 2.39095e-17 0.33351)
(-0.870459 -1.92485e-22 0.336503)
(-0.940926 0 0.339698)
(-1.01107 0 0.340851)
(-1.08169 1.24168e-17 0.339691)
(-1.15839 -6.21935e-23 0.339077)
(-1.2388 0 0.339276)
(-1.31728 -3.27255e-23 0.337875)
(-1.39569 0 0.335007)
(-1.47657 -1.26976e-17 0.332117)
(-1.56045 0 0.329889)
(-1.64707 1.2731e-17 0.32887)
(-1.7321 -2.54619e-17 0.328003)
(-1.81401 1.27232e-17 0.326054)
(-1.89482 0 0.323453)
(-1.97561 0 0.320622)
(-2.05786 -3.36424e-23 0.31832)
(-2.1398 6.3066e-18 0.316604)
(-2.21929 -4.76406e-23 0.314561)
(-2.29397 0 0.31124)
(-2.36288 0 0.305191)
(-2.43149 -6.19077e-18 0.297367)