/*--------------------------------*- C++ -*----------------------------------*\
  =========                 |
  \\      /  F ield         | OpenFOAM: The Open Source CFD Toolbox
   \\    /   O peration     | Website:  https://openfoam.org
    \\  /    A nd           | Version:  7
     \\/     M anipulation  |
\*---------------------------------------------------------------------------*/
FoamFile
{
    version     2.0;
    format      ascii;
    class       volVectorField;
    location    "801";
    object      U_LES;
}
// * * * * * * * * * * * * * * * * * * * * * * * * * * * * * * * * * * * * * //

dimensions      [0 1 -1 0 0 0 0];

internalField   nonuniform List<vector> 
51626
(
(2.40067 0 -0.00126715)
(2.44869 0 0.000329231)
(2.31343 0 0.000708758)
(2.2309 0 0.000336834)
(2.19123 0 0.000162039)
(2.17218 0 7.4935e-05)
(2.16448 0 3.01676e-05)
(2.16258 0 -5.60939e-06)
(2.16525 0 -2.30879e-05)
(2.16999 0 -3.32594e-05)
(2.17703 0 -4.57679e-05)
(2.18451 0 -4.39135e-05)
(2.19108 0 -2.98524e-05)
(2.19717 0 -3.96119e-05)
(2.20419 0 -4.26495e-05)
(2.21091 0 -3.39029e-05)
(2.21613 0 -3.06722e-05)
(2.22153 0 -2.3559e-05)
(2.22534 0 -2.25518e-05)
(2.22924 0 -2.35585e-05)
(2.23283 0 -1.56099e-05)
(2.23491 0 -8.96872e-06)
(2.23691 0 -1.73455e-05)
(2.23974 0 -8.11233e-06)
(2.24173 0 -1.31694e-05)
(2.24398 0 -1.29816e-05)
(2.24618 0 -1.06725e-05)
(2.24777 0 -9.18421e-06)
(2.2499 0 -6.1677e-06)
(2.25107 0 -9.42197e-06)
(2.25275 0 -8.2904e-06)
(2.25418 0 -9.54641e-06)
(2.2561 0 -9.04269e-06)
(2.25723 0 -7.28156e-06)
(2.25826 0 2.13053e-06)
(2.2587 0 -5.48915e-06)
(2.25972 0 -5.18157e-06)
(2.26115 0 -9.86816e-06)
(2.26278 0 -8.18382e-06)
(2.26405 0 1.19939e-06)
(2.26384 0 7.26492e-08)
(2.2642 0 -3.71068e-06)
(2.26538 0 -9.16415e-06)
(2.26686 0 -6.86945e-06)
(2.26834 0 -1.0556e-05)
(2.26972 0 -1.67264e-06)
(2.27073 0 -5.26411e-06)
(2.27144 0 -9.3095e-07)
(2.27113 0 3.29001e-06)
(2.27087 0 -9.82178e-08)
(2.27184 0 -1.83838e-06)
(2.27231 0 -6.19322e-06)
(2.27365 0 -6.31443e-06)
(2.27462 0 -3.71684e-06)
(2.27464 0 3.88582e-06)
(2.2745 0 -4.33056e-06)
(2.27537 0 3.22575e-07)
(2.27662 0 -1.17311e-05)
(2.27841 0 -7.16157e-06)
(2.27935 0 -3.71737e-06)
(2.28002 0 -3.66851e-06)
(2.28076 0 2.96189e-06)
(2.28036 0 1.33662e-06)
(2.28012 0 2.89767e-06)
(2.28009 0 -1.94314e-06)
(2.28052 0 -4.26844e-07)
(2.2805 0 -2.61279e-06)
(2.28094 0 5.48308e-06)
(2.28047 0 2.71086e-06)
(2.28027 0 -8.74401e-07)
(2.28071 0 -1.42261e-06)
(2.28099 0 -1.93438e-06)
(2.28181 0 2.02437e-06)
(2.28143 0 -1.53305e-07)
(2.28162 0 -9.72599e-07)
(2.28184 0 5.08318e-08)
(2.28195 0 -1.29036e-06)
(2.28287 0 -9.17853e-06)
(2.28352 0 7.19762e-06)
(2.28302 0 2.29783e-06)
(2.28315 0 -5.31601e-06)
(2.28439 0 -6.11432e-06)
(2.28545 0 -6.34669e-06)
(2.28689 0 -8.74441e-07)
(2.2862 0 5.04687e-06)
(2.28648 0 -6.71169e-06)
(2.28771 0 -5.04441e-06)
(2.28874 0 -5.92103e-06)
(2.28955 0 -5.26169e-06)
(2.28968 0 1.01382e-05)
(2.28883 0 2.7122e-06)
(2.28821 0 5.64475e-06)
(2.2876 0 2.3841e-06)
(2.28766 0 -1.95132e-06)
(2.28811 0 5.27992e-06)
(2.28728 0 2.85954e-06)
(2.28686 0 4.10617e-06)
(2.28598 0 6.64923e-06)
(2.28549 0 -2.14198e-08)
(2.28568 0 -3.48749e-07)
(2.28494 0 1.18342e-05)
(2.28435 0 1.83058e-06)
(2.28392 0 -7.12131e-07)
(2.28514 0 -9.16426e-06)
(2.28619 0 -3.70611e-06)
(2.287 0 2.54067e-06)
(2.28666 0 1.72658e-07)
(2.28657 0 2.46652e-06)
(2.28642 0 1.35976e-06)
(2.28602 0 1.66297e-06)
(2.2863 0 -4.35184e-06)
(2.28652 0 8.45725e-06)
(2.28603 0 -2.03339e-06)
(2.28685 0 -5.01686e-06)
(2.28747 0 -1.35451e-06)
(2.28779 0 -1.86637e-06)
(2.28782 0 9.20344e-06)
(2.28683 0 8.35468e-07)
(2.28679 0 1.75691e-06)
(2.28694 0 -2.20744e-06)
(2.28701 0 3.36365e-06)
(2.28681 0 -2.50713e-06)
(2.28638 0 1.32972e-05)
(2.28527 0 2.64564e-06)
(2.28444 0 8.05814e-06)
(2.28343 0 4.53944e-06)
(2.28304 0 -5.63842e-07)
(2.28377 0 3.24478e-06)
(2.28313 0 7.35221e-08)
(2.28327 0 1.72862e-06)
(2.28329 0 -2.27911e-06)
(2.28382 0 -1.4602e-06)
(2.28414 0 -3.60593e-06)
(2.28394 0 1.26821e-05)
(2.28231 0 7.44838e-06)
(2.28183 0 -1.07122e-06)
(2.28203 0 1.55805e-06)
(2.28172 0 2.31636e-06)
(2.2813 0 1.09009e-05)
(2.27981 0 4.04532e-06)
(2.27982 0 -8.88046e-07)
(2.27985 0 1.02714e-06)
(2.27978 0 1.27377e-06)
(2.27946 0 2.99235e-06)
(2.27825 0 1.42896e-05)
(2.27718 0 2.05475e-06)
(2.27686 0 3.35896e-06)
(2.27644 0 1.92489e-06)
(2.27626 0 1.32925e-06)
(2.27639 0 4.32906e-06)
(2.27598 0 1.37275e-06)
(2.27556 0 3.83103e-06)
(2.27505 0 2.96256e-06)
(2.27467 0 4.79121e-06)
(2.27355 0 5.76878e-06)
(2.27266 0 9.31793e-06)
(2.27231 0 -2.77423e-07)
(2.27227 0 1.31587e-06)
(2.27206 0 2.00572e-06)
(2.27229 0 -4.72864e-06)
(2.27277 0 9.02559e-06)
(2.27152 0 2.2707e-06)
(2.27119 0 4.291e-06)
(2.27059 0 3.26151e-06)
(2.27043 0 -5.6023e-08)
(2.27068 0 -1.96356e-06)
(2.27017 0 1.30204e-05)
(2.26866 0 6.07262e-06)
(2.26846 0 -2.1073e-06)
(2.26863 0 2.29022e-06)
(2.26808 0 4.58421e-06)
(2.26743 0 1.10703e-05)
(2.26563 0 9.42475e-06)
(2.26416 0 8.73075e-06)
(2.26299 0 5.58303e-06)
(2.26246 0 3.58573e-06)
(2.26194 0 9.01013e-07)
(2.26162 0 8.27054e-06)
(2.26104 0 3.98348e-06)
(2.26016 0 5.79305e-06)
(2.25928 0 5.43776e-06)
(2.2588 0 2.01891e-06)
(2.25847 0 8.21346e-06)
(2.2577 0 1.62419e-06)
(2.25742 0 1.63707e-06)
(2.25748 0 -2.35716e-08)
(2.25712 0 5.03615e-06)
(2.25625 0 3.03557e-06)
(2.25624 0 3.58864e-06)
(2.25635 0 -3.42816e-07)
(2.2557 0 8.40131e-06)
(2.25443 0 4.90036e-06)
(2.25432 0 1.42577e-06)
(2.25391 0 9.33681e-06)
(2.25209 0 1.07279e-05)
(2.25079 0 7.50906e-06)
(2.24921 0 9.72875e-06)
(2.24829 0 4.315e-06)
(2.24801 0 -1.40138e-06)
(2.24788 0 6.01844e-06)
(2.2483 0 -5.40309e-06)
(2.24841 0 6.35977e-06)
(2.24698 0 9.35158e-06)
(2.24593 0 3.74686e-06)
(2.24567 0 8.51048e-06)
(2.24394 0 1.05739e-05)
(2.24226 0 1.02854e-05)
(2.24124 0 2.39198e-06)
(2.24077 0 6.23108e-06)
(2.23974 0 5.41412e-06)
(2.23815 0 1.74352e-05)
(2.23652 0 4.77056e-06)
(2.23573 0 7.79948e-06)
(2.23431 0 7.05109e-06)
(2.23359 0 3.83741e-06)
(2.23268 0 1.4796e-05)
(2.23048 0 9.18362e-06)
(2.22946 0 5.07673e-06)
(2.22885 0 3.55579e-06)
(2.22816 0 6.71601e-06)
(2.2275 0 -2.02417e-06)
(2.2275 0 9.39229e-06)
(2.22651 0 4.4679e-06)
(2.22603 0 2.54397e-06)
(2.22549 0 6.58961e-06)
(2.2242 0 6.31889e-06)
(2.22374 0 9.11439e-06)
(2.22149 0 1.6318e-05)
(2.2189 0 1.37034e-05)
(2.21711 0 1.02212e-05)
(2.21564 0 1.03052e-05)
(2.21342 0 1.35896e-05)
(2.21082 0 2.09017e-05)
(2.20885 0 7.53259e-06)
(2.20732 0 1.1377e-05)
(2.20582 0 7.42762e-06)
(2.20417 0 1.42924e-05)
(2.20135 0 2.6318e-05)
(2.19745 0 1.67693e-05)
(2.19396 0 1.59708e-05)
(2.18997 0 1.80082e-05)
(2.18626 0 1.5662e-05)
(2.18223 0 1.61352e-05)
(2.17846 0 2.1326e-05)
(2.17426 0 1.80882e-05)
(2.17052 0 1.33835e-05)
(2.16745 0 1.28402e-05)
(2.16388 0 1.56303e-05)
(2.16002 0 2.58498e-05)
(2.1546 0 2.25091e-05)
(2.14997 0 2.03783e-05)
(2.14591 0 1.56546e-05)
(2.14225 0 1.6067e-05)
(2.13894 0 7.20041e-06)
(2.13597 0 2.00536e-05)
(2.13165 0 1.60164e-05)
(2.12763 0 1.45785e-05)
(2.12286 0 2.16466e-05)
(2.11784 0 1.79889e-05)
(2.11248 0 2.70626e-05)
(2.10566 0 2.77347e-05)
(2.09927 0 2.09361e-05)
(2.09315 0 2.56369e-05)
(2.08634 0 2.52821e-05)
(2.07959 0 2.39368e-05)
(2.07268 0 3.07666e-05)
(2.06505 0 2.95294e-05)
(2.05726 0 3.00414e-05)
(2.04964 0 2.50256e-05)
(2.04223 0 3.28129e-05)
(2.03316 0 4.31254e-05)
(2.02368 0 3.51473e-05)
(2.01425 0 4.18124e-05)
(2.00468 0 3.46838e-05)
(1.99638 0 3.48465e-05)
(1.98725 0 3.6227e-05)
(1.97753 0 4.96678e-05)
(1.96751 0 3.79958e-05)
(1.95853 0 4.03645e-05)
(1.94888 0 4.1188e-05)
(1.93933 0 4.45517e-05)
(1.92958 0 4.84857e-05)
(1.91877 0 4.86628e-05)
(1.90933 0 4.10249e-05)
(1.9001 0 4.40157e-05)
(1.8906 0 4.67174e-05)
(1.88075 0 4.77219e-05)
(1.87056 0 5.77926e-05)
(1.8598 0 5.38194e-05)
(1.84908 0 5.73819e-05)
(1.83819 0 5.59454e-05)
(1.82763 0 5.51871e-05)
(1.81723 0 5.91075e-05)
(1.80566 0 6.15944e-05)
(1.79445 0 5.58546e-05)
(1.78374 0 5.85798e-05)
(1.77207 0 6.54514e-05)
(1.75929 0 6.77321e-05)
(1.74608 0 7.77851e-05)
(1.7319 0 7.56361e-05)
(1.71808 0 7.34216e-05)
(1.7041 0 7.87191e-05)
(1.68859 0 8.65355e-05)
(1.67244 0 9.59771e-05)
(1.65444 0 9.49868e-05)
(1.63737 0 9.34023e-05)
(1.61979 0 9.64789e-05)
(1.60208 0 9.86506e-05)
(1.5835 0 0.000102494)
(1.56416 0 0.000113487)
(1.54329 0 0.000115263)
(1.52266 0 0.000112805)
(1.5015 0 0.000120217)
(1.47923 0 0.000125323)
(1.45615 0 0.00013708)
(1.43081 0 0.000138384)
(1.40563 0 0.000141691)
(1.37956 0 0.000146855)
(1.35243 0 0.000156103)
(1.32393 0 0.000158544)
(1.29355 0 0.000182626)
(1.26173 0 0.000172742)
(1.2305 0 0.00017863)
(1.19703 0 0.00019595)
(1.16132 0 0.000201014)
(1.12471 0 0.000217852)
(1.08389 0 0.000232818)
(1.04172 0 0.000242093)
(0.997688 0 0.000251821)
(0.952212 0 0.000259642)
(0.904611 0 0.000273885)
(0.853163 0 0.000307332)
(0.797505 0 0.000318637)
(0.740218 0 0.000328248)
(0.680432 0 0.000347715)
(0.61596 0 0.000380788)
(0.543988 0 0.000429366)
(0.465021 0 0.000458296)
(0.368413 0 0.000616947)
(0.274954 0 0.0102917)
(0.480268 0 0.0625117)
(0.568316 0 0.108034)
(0.62351 0 0.157123)
(0.692558 0 0.218028)
(0.7714 0 0.288543)
(0.855632 0 0.366827)
(0.949705 0 0.454551)
(1.05458 0 0.550891)
(1.16371 0 0.650291)
(1.27839 0 0.753183)
(1.40676 0 0.863281)
(1.54631 0 0.974614)
(1.68582 0 1.07684)
(1.83024 0 1.17495)
(1.99046 0 1.27426)
(2.15443 0 1.36021)
(2.29948 0 1.41847)
(2.46081 0 1.4808)
(2.68159 0 1.55986)
(2.79205 0 1.52397)
(2.65505 0 1.34976)
(2.65204 0 1.29668)
(2.72859 0 1.28705)
(2.75569 0 1.24995)
(2.75952 0 1.20612)
(2.79076 0 1.18003)
(2.77398 0 1.12897)
(2.69134 0 1.06238)
(2.79406 0 1.0934)
(2.99049 0 1.15459)
(3.12183 0 1.1714)
(3.13116 0 1.12493)
(3.04113 0 1.04279)
(2.97984 0 0.982588)
(2.98498 0 0.952012)
(3.00283 0 0.924837)
(2.99545 0 0.888267)
(2.97172 0 0.848267)
(2.95635 0 0.813606)
(2.954 0 0.784599)
(2.95396 0 0.757085)
(2.95053 0 0.729677)
(2.95139 0 0.705277)
(2.96708 0 0.686486)
(2.99794 0 0.67241)
(3.03585 0 0.660391)
(3.07795 0 0.649611)
(3.12298 0 0.639613)
(3.1706 0 0.630313)
(3.22031 0 0.621628)
(3.27294 0 0.613726)
(3.32716 0 0.606183)
(3.3785 0 0.597974)
(3.42757 0 0.589398)
(3.47663 0 0.581163)
(3.52691 0 0.573564)
(3.57835 0 0.566476)
(3.63172 0 0.559952)
(3.6844 0 0.552709)
(3.72552 0 0.542226)
(3.75129 0 0.528551)
(3.77614 0 0.515388)
(3.81034 0 0.504276)
(3.84258 0 0.492183)
(3.86282 0 0.47721)
(3.87334 0 0.460827)
(3.88955 0 0.446177)
(3.91761 0 0.433332)
(3.94032 0 0.418618)
(3.94611 0 0.400738)
(3.94804 0 0.383055)
(3.96254 0 0.367944)
(3.987 0 0.353647)
(4.00016 0 0.336723)
(3.99621 0 0.317536)
(3.99904 0 0.300282)
(4.02088 0 0.285667)
(4.04274 0 0.269449)
(4.04009 0 0.249024)
(4.02138 0 0.227941)
(4.02434 0 0.210954)
(4.05737 0 0.196571)
(4.07825 0 0.178501)
(4.0657 0 0.156019)
(4.04419 0 0.133791)
(4.03585 0 0.113728)
(4.04146 0 0.094746)
(4.04758 0 0.075493)
(4.0524 0 0.0558189)
(4.05378 0 0.0355511)
(4.05177 0 0.0147011)
(4.04396 0 -0.00699646)
(4.03021 0 -0.0293587)
(4.01715 0 -0.0513764)
(4.01732 0 -0.0725886)
(4.02645 0 -0.0945158)
(4.01669 0 -0.118846)
(3.98548 0 -0.144411)
(3.95964 0 -0.168791)
(3.95974 0 -0.192627)
(3.96346 0 -0.218791)
(3.93734 0 -0.247386)
(3.88301 0 -0.276223)
(3.83425 0 -0.304781)
(3.79482 0 -0.333637)
(3.75491 0 -0.363154)
(3.71103 0 -0.393201)
(3.66131 0 -0.423766)
(3.61409 0 -0.455896)
(3.55422 0 -0.490517)
(3.43437 0 -0.523372)
(3.25011 0 -0.548374)
(3.08909 0 -0.571369)
(3.01604 0 -0.610833)
(2.61637 0 -0.615943)
(1.34729 0 -0.39202)
(0.309764 0 -0.106427)
(-0.166444 0 0.086945)
(-0.18046 0 0.112077)
(-0.119383 0 0.0845636)
(-0.0600124 0 0.0462425)
(-0.0363244 0 0.0298804)
(-0.0369564 0 0.0312547)
(-0.0357338 0 0.0305551)
(-0.0328176 0 0.0278595)
(-0.0340467 0 0.0283813)
(-0.0388328 0 0.0320629)
(-0.0419708 0 0.0343598)
(-0.0471667 0 0.0377726)
(-0.0548762 0 0.0424601)
(-0.0687238 0 0.0512189)
(-0.0846856 0 0.0609277)
(-0.0989727 0 0.0686161)
(-0.113843 0 0.0755925)
(-0.128285 0 0.0811712)
(-0.14691 0 0.0883051)
(-0.167024 0 0.095066)
(-0.188975 0 0.101548)
(-0.213776 0 0.108101)
(-0.240882 0 0.114232)
(-0.269543 0 0.119509)
(-0.298829 0 0.123643)
(-0.331436 0 0.127871)
(-0.364123 0 0.131215)
(-0.402664 0 0.135498)
(-0.437159 0 0.136998)
(-0.46653 0 0.136239)
(-0.492702 0 0.134617)
(-0.518037 0 0.132583)
(-0.548762 0 0.131438)
(-0.580001 0 0.130164)
(-0.608217 0 0.128284)
(-0.637984 0 0.127104)
(-0.668138 0 0.126276)
(-0.697822 0 0.125172)
(-0.72958 0 0.124326)
(-0.756741 0 0.122545)
(-0.778444 0 0.120145)
(-0.79939 0 0.11805)
(-0.829098 0 0.117334)
(-0.852802 0 0.11549)
(-0.871765 0 0.112377)
(-0.888327 0 0.108461)
(-0.907685 0 0.10466)
(-0.921068 0 0.0994095)
(-0.919848 0 0.0910921)
(-0.923625 0 0.0821841)
(-0.921491 0 0.0715198)
(-0.911345 0 0.0596123)
(-0.916054 0 0.0479814)
(-0.90788 0 0.0357077)
(-0.877161 0 0.0237028)
(-0.822008 0 0.0132615)
(-0.77289 0 0.00738105)
(-0.73757 0 0.00638468)
(-0.703251 0 0.00632675)
(-0.686669 0 0.00636614)
(-0.689647 0 0.00798367)
(-0.658814 0 0.00783246)
(-0.594393 0 0.00128563)
(-0.537389 0 -0.000323628)
(-0.471444 0 -0.00040068)
(-0.412841 0 -0.000296544)
(-0.36127 0 -0.000232393)
(-0.316006 0 -0.000299955)
(-0.256302 0 -0.00034634)
(-0.203511 0 -0.000276905)
(-0.147881 0 -0.000313977)
(-0.0977157 0 -0.00026331)
(-0.0465665 0 -0.000348562)
(0.0186569 0 -0.000331421)
(0.0679339 0 -0.000262366)
(0.120376 0 -0.000302078)
(0.175013 0 -0.000267841)
(0.219112 0 -0.000286244)
(0.27623 0 -0.000308263)
(0.330368 0 -0.000315969)
(0.388288 0 -0.000314716)
(0.434957 0 -0.00023375)
(0.47862 0 -0.000289313)
(0.534714 0 -0.000299079)
(0.577838 0 -0.000216472)
(0.622626 0 -0.000258711)
(0.661293 0 -0.000186273)
(0.700215 0 -0.000227852)
(0.741025 0 -0.000218838)
(0.782969 0 -0.000252106)
(0.82747 0 -0.000242433)
(0.864998 0 -0.000188889)
(0.898472 0 -0.000218962)
(0.940984 0 -0.000227199)
(0.977982 0 -0.000199457)
(1.01153 0 -0.000167036)
(1.04479 0 -0.000209317)
(1.08037 0 -0.000185419)
(1.11127 0 -0.000158681)
(1.1387 0 -0.000141539)
(1.16649 0 -0.000162535)
(1.1944 0 -0.000146035)
(1.21854 0 -0.000145022)
(1.24445 0 -0.000137212)
(1.26948 0 -0.000140212)
(1.29413 0 -0.000134457)
(1.31864 0 -0.000135935)
(1.34385 0 -0.00013969)
(1.36767 0 -0.000129965)
(1.38924 0 -0.000113382)
(1.41161 0 -0.000109867)
(1.42915 0 -0.000103257)
(1.44814 0 -0.000107539)
(1.46648 0 -0.000100184)
(1.48658 0 -0.000115896)
(1.50489 0 -9.21717e-05)
(1.5197 0 -7.18595e-05)
(1.53393 0 -7.59219e-05)
(1.54669 0 -7.14585e-05)
(1.56103 0 -8.40272e-05)
(1.57514 0 -7.04646e-05)
(1.58834 0 -6.68694e-05)
(1.60057 0 -6.86571e-05)
(1.6116 0 -5.92891e-05)
(1.62305 0 -6.52106e-05)
(1.63497 0 -6.7551e-05)
(1.6472 0 -6.8543e-05)
(1.65782 0 -4.77816e-05)
(1.66781 0 -5.60111e-05)
(1.67774 0 -5.16166e-05)
(1.68711 0 -5.35864e-05)
(1.69661 0 -5.1772e-05)
(1.70602 0 -4.03768e-05)
(1.7132 0 -4.33569e-05)
(1.72133 0 -4.65066e-05)
(1.73026 0 -5.15325e-05)
(1.73962 0 -4.83777e-05)
(1.74742 0 -4.23895e-05)
(1.75441 0 -3.19146e-05)
(1.7614 0 -3.70375e-05)
(1.76825 0 -4.14509e-05)
(1.77527 0 -3.20436e-05)
(1.78066 0 -2.68555e-05)
(1.78535 0 -1.6149e-05)
(1.78883 0 -2.32445e-05)
(1.7929 0 -2.15839e-05)
(1.79737 0 -2.84707e-05)
(1.80326 0 -3.49605e-05)
(1.80972 0 -3.45111e-05)
(1.81414 0 -1.19806e-05)
(1.81751 0 -1.84027e-05)
(1.8209 0 -1.99158e-05)
(1.82523 0 -2.55771e-05)
(1.83028 0 -3.0943e-05)
(1.83513 0 -1.22997e-05)
(1.83811 0 -2.18321e-05)
(1.8433 0 -2.96717e-05)
(1.8495 0 -2.66905e-05)
(1.8556 0 -2.14141e-05)
(1.86127 0 -1.81061e-05)
(1.86589 0 -1.09484e-06)
(1.87057 0 -1.04971e-05)
(1.87635 0 -1.4478e-05)
(1.88266 0 -1.23514e-05)
(1.88768 0 -5.72514e-06)
(7.20298 0 -0.009311)
(7.24053 0 0.0028521)
(6.88684 0 0.00478662)
(6.66311 0 0.00232238)
(6.55189 0 0.00113923)
(6.49715 0 0.000532597)
(6.47435 0 0.000204526)
(6.46884 0 -3.09462e-05)
(6.47552 0 -0.000151376)
(6.48811 0 -0.000226963)
(6.50739 0 -0.000314537)
(6.52812 0 -0.000297157)
(6.54657 0 -0.000223602)
(6.56449 0 -0.000274672)
(6.58438 0 -0.000294939)
(6.60344 0 -0.000237269)
(6.61885 0 -0.000214492)
(6.63455 0 -0.000181884)
(6.64626 0 -0.000153967)
(6.65745 0 -0.000162511)
(6.66802 0 -0.00011242)
(6.67454 0 -6.1813e-05)
(6.68059 0 -0.000119051)
(6.68876 0 -7.03832e-05)
(6.69486 0 -8.70457e-05)
(6.70127 0 -8.90891e-05)
(6.7078 0 -7.58236e-05)
(6.71286 0 -6.23881e-05)
(6.71873 0 -5.61109e-05)
(6.72297 0 -6.1974e-05)
(6.72777 0 -5.73779e-05)
(6.73232 0 -6.65853e-05)
(6.73759 0 -5.78675e-05)
(6.74089 0 -4.72775e-05)
(6.7441 0 8.67757e-07)
(6.74638 0 -3.94498e-05)
(6.74944 0 -3.45699e-05)
(6.75332 0 -6.25783e-05)
(6.75754 0 -5.15914e-05)
(6.76145 0 -9.5059e-06)
(6.76209 0 1.3102e-06)
(6.76328 0 -2.19336e-05)
(6.76651 0 -6.05771e-05)
(6.77072 0 -4.55695e-05)
(6.7745 0 -6.46314e-05)
(6.77854 0 -2.64881e-05)
(6.78185 0 -3.27951e-05)
(6.7842 0 -7.99952e-06)
(6.78402 0 2.41856e-05)
(6.78343 0 1.54694e-06)
(6.78575 0 -2.06422e-05)
(6.78752 0 -3.82828e-05)
(6.79091 0 -3.84953e-05)
(6.79361 0 -2.35959e-05)
(6.79384 0 2.93786e-05)
(6.79363 0 -2.6511e-05)
(6.79627 0 -1.00454e-05)
(6.80003 0 -7.6491e-05)
(6.80488 0 -4.55644e-05)
(6.80746 0 -2.2888e-05)
(6.80942 0 -2.18066e-05)
(6.81152 0 6.09221e-06)
(6.81139 0 1.01111e-05)
(6.811 0 2.33369e-05)
(6.81116 0 -1.26927e-05)
(6.81219 0 3.95687e-06)
(6.8122 0 -1.64729e-05)
(6.8138 0 2.533e-05)
(6.81285 0 2.27292e-05)
(6.81237 0 -3.00079e-06)
(6.81345 0 -6.83693e-06)
(6.81421 0 -8.84221e-06)
(6.81607 0 3.37367e-06)
(6.81549 0 6.83294e-06)
(6.81552 0 7.34196e-09)
(6.81597 0 3.04381e-06)
(6.81638 0 -7.31414e-06)
(6.81893 0 -5.69413e-05)
(6.82097 0 3.57903e-05)
(6.82 0 1.99452e-05)
(6.8203 0 -3.09292e-05)
(6.8234 0 -3.94063e-05)
(6.82614 0 -3.59026e-05)
(6.82959 0 -1.65161e-05)
(6.82873 0 3.34507e-05)
(6.82966 0 -4.04144e-05)
(6.8329 0 -3.33337e-05)
(6.83569 0 -3.65797e-05)
(6.83809 0 -3.27001e-05)
(6.83855 0 5.87653e-05)
(6.83645 0 2.59048e-05)
(6.83457 0 3.96184e-05)
(6.83308 0 1.96434e-05)
(6.83308 0 -5.91867e-06)
(6.83395 0 2.40657e-05)
(6.83248 0 2.44623e-05)
(6.8312 0 3.28829e-05)
(6.82891 0 4.50606e-05)
(6.828 0 2.06988e-06)
(6.82843 0 3.81845e-06)
(6.8268 0 6.67828e-05)
(6.8253 0 1.87188e-05)
(6.82427 0 -9.646e-07)
(6.82704 0 -5.55662e-05)
(6.82978 0 -2.02205e-05)
(6.83175 0 4.78935e-06)
(6.83134 0 8.04156e-06)
(6.83098 0 1.94655e-05)
(6.83056 0 1.37676e-05)
(6.82971 0 1.22541e-05)
(6.83025 0 -2.05932e-05)
(6.83052 0 4.84695e-05)
(6.82971 0 -1.15156e-05)
(6.83174 0 -2.9267e-05)
(6.83338 0 -5.71951e-06)
(6.8341 0 -6.54463e-06)
(6.83423 0 4.86427e-05)
(6.83221 0 1.14919e-05)
(6.83214 0 1.43827e-05)
(6.83234 0 -9.38483e-06)
(6.83241 0 2.50802e-05)
(6.83173 0 -7.70167e-06)
(6.83064 0 7.65736e-05)
(6.82804 0 2.48992e-05)
(6.82575 0 5.89761e-05)
(6.82279 0 3.59206e-05)
(6.8216 0 1.99552e-06)
(6.82314 0 1.24633e-05)
(6.82194 0 6.1319e-06)
(6.82233 0 1.22843e-05)
(6.8224 0 -8.55029e-06)
(6.82336 0 -6.71379e-06)
(6.82427 0 -1.70785e-05)
(6.82351 0 7.78232e-05)
(6.81924 0 5.74294e-05)
(6.8178 0 -4.35312e-06)
(6.81817 0 1.42733e-05)
(6.81738 0 2.0683e-05)
(6.81601 0 6.44123e-05)
(6.81255 0 3.15121e-05)
(6.81244 0 -1.48638e-06)
(6.81247 0 9.94921e-06)
(6.81232 0 1.28906e-05)
(6.81141 0 2.52684e-05)
(6.80835 0 8.74596e-05)
(6.80536 0 2.20558e-05)
(6.80418 0 2.65496e-05)
(6.80299 0 1.88679e-05)
(6.80211 0 1.51209e-05)
(6.80243 0 1.7099e-05)
(6.80184 0 1.32009e-05)
(6.80065 0 3.23265e-05)
(6.79869 0 2.78738e-05)
(6.79728 0 3.65826e-05)
(6.79434 0 4.40896e-05)
(6.7919 0 5.62876e-05)
(6.79087 0 4.57915e-06)
(6.79082 0 9.81317e-06)
(6.79009 0 1.93096e-05)
(6.79056 0 -2.64339e-05)
(6.79148 0 5.12846e-05)
(6.78848 0 2.5662e-05)
(6.7871 0 2.98768e-05)
(6.78599 0 2.34183e-05)
(6.78538 0 5.2827e-06)
(6.78572 0 -5.58418e-06)
(6.7844 0 7.67873e-05)
(6.7807 0 4.54893e-05)
(6.7801 0 -1.00864e-05)
(6.78036 0 2.0507e-05)
(6.7786 0 3.67382e-05)
(6.7766 0 6.58494e-05)
(6.77185 0 7.2642e-05)
(6.76734 0 6.72941e-05)
(6.76394 0 4.01562e-05)
(6.76239 0 2.93954e-05)
(6.7609 0 1.25038e-05)
(6.75984 0 4.65625e-05)
(6.75828 0 3.46088e-05)
(6.75562 0 4.33971e-05)
(6.75341 0 3.74793e-05)
(6.75202 0 2.27133e-05)
(6.75068 0 4.55063e-05)
(6.74887 0 1.83026e-05)
(6.74781 0 1.56949e-05)
(6.74776 0 5.95244e-06)
(6.74665 0 3.62051e-05)
(6.74427 0 2.63949e-05)
(6.74435 0 1.23501e-05)
(6.74477 0 4.64523e-06)
(6.74289 0 6.11122e-05)
(6.73932 0 3.63814e-05)
(6.73884 0 1.54443e-05)
(6.73761 0 5.50553e-05)
(6.73313 0 7.72616e-05)
(6.7293 0 5.76957e-05)
(6.7249 0 7.05499e-05)
(6.72198 0 3.39473e-05)
(6.72093 0 -1.31897e-06)
(6.72044 0 3.17033e-05)
(6.72141 0 -2.90939e-05)
(6.72143 0 4.56235e-05)
(6.71774 0 6.53003e-05)
(6.71505 0 2.94916e-05)
(6.71418 0 4.77572e-05)
(6.71003 0 7.59327e-05)
(6.70544 0 7.59324e-05)
(6.70215 0 2.32316e-05)
(6.70071 0 4.32793e-05)
(6.6979 0 4.57573e-05)
(6.69337 0 0.000109946)
(6.68901 0 3.89476e-05)
(6.68646 0 5.83563e-05)
(6.68218 0 5.68239e-05)
(6.67952 0 3.43376e-05)
(6.67682 0 8.89835e-05)
(6.67149 0 6.67085e-05)
(6.66843 0 4.16977e-05)
(6.66638 0 2.80944e-05)
(6.6645 0 4.66251e-05)
(6.66256 0 -3.60086e-06)
(6.66216 0 5.54232e-05)
(6.6593 0 3.87757e-05)
(6.65763 0 1.99928e-05)
(6.65633 0 4.63576e-05)
(6.65286 0 5.05315e-05)
(6.65114 0 5.1702e-05)
(6.64551 0 0.000118524)
(6.63794 0 0.000101021)
(6.63266 0 7.3518e-05)
(6.62822 0 7.81287e-05)
(6.62185 0 0.000100491)
(6.61485 0 0.000129321)
(6.60969 0 6.01584e-05)
(6.60506 0 8.146e-05)
(6.60085 0 5.6446e-05)
(6.59616 0 0.000100884)
(6.58845 0 0.000169563)
(6.5776 0 0.000124369)
(6.56601 0 0.000116133)
(6.55348 0 0.000123386)
(6.54153 0 0.000113293)
(6.52851 0 0.000118873)
(6.51577 0 0.000142736)
(6.50237 0 0.000126415)
(6.49035 0 9.82093e-05)
(6.47972 0 9.2355e-05)
(6.46819 0 0.000112115)
(6.45588 0 0.000163345)
(6.4396 0 0.000165279)
(6.42448 0 0.000145864)
(6.41108 0 0.000113192)
(6.39903 0 0.000113781)
(6.38768 0 5.97603e-05)
(6.37721 0 0.000129856)
(6.36383 0 0.000111607)
(6.35092 0 0.000106074)
(6.33563 0 0.000150732)
(6.32001 0 0.000127687)
(6.30336 0 0.000176616)
(6.28299 0 0.000194064)
(6.26357 0 0.000148502)
(6.2447 0 0.000176819)
(6.22405 0 0.000178725)
(6.20322 0 0.00016926)
(6.18235 0 0.000202623)
(6.15967 0 0.000203773)
(6.13641 0 0.000209868)
(6.11307 0 0.000177838)
(6.09027 0 0.000229057)
(6.06346 0 0.000281874)
(6.03574 0 0.000248301)
(6.00745 0 0.000287218)
(5.97913 0 0.000240968)
(5.95362 0 0.000242722)
(5.92658 0 0.00025192)
(5.89759 0 0.000330084)
(5.86807 0 0.000262951)
(5.84093 0 0.000278778)
(5.81219 0 0.000284315)
(5.78339 0 0.000309878)
(5.75386 0 0.000323172)
(5.72239 0 0.000332596)
(5.69402 0 0.000283469)
(5.66638 0 0.000301969)
(5.63795 0 0.000319675)
(5.60841 0 0.000331393)
(5.57785 0 0.000382636)
(5.54619 0 0.000369678)
(5.51425 0 0.000390367)
(5.48213 0 0.00037968)
(5.45065 0 0.000379545)
(5.41916 0 0.000394069)
(5.38521 0 0.000418657)
(5.35185 0 0.000383339)
(5.31955 0 0.000399198)
(5.28486 0 0.000445653)
(5.24741 0 0.000457554)
(5.20887 0 0.000516673)
(5.16756 0 0.000513413)
(5.1265 0 0.000499878)
(5.08521 0 0.000533525)
(5.0399 0 0.000585406)
(4.99252 0 0.000640167)
(4.94055 0 0.00064296)
(4.89037 0 0.000633671)
(4.83898 0 0.000648894)
(4.78757 0 0.000664089)
(4.7335 0 0.000693183)
(4.67721 0 0.000756638)
(4.61699 0 0.000772777)
(4.55714 0 0.000761061)
(4.49534 0 0.000810633)
(4.43091 0 0.000838952)
(4.36404 0 0.000913069)
(4.29113 0 0.000930329)
(4.21845 0 0.000949798)
(4.14293 0 0.000987045)
(4.06435 0 0.00104651)
(3.98212 0 0.00106445)
(3.89464 0 0.00121239)
(3.80329 0 0.00115592)
(3.71317 0 0.00119507)
(3.61682 0 0.00130998)
(3.51391 0 0.00134641)
(3.40821 0 0.00144864)
(3.29146 0 0.0015545)
(3.1703 0 0.00161759)
(3.04378 0 0.00168112)
(2.91293 0 0.00173592)
(2.77575 0 0.00183251)
(2.62734 0 0.00205015)
(2.46678 0 0.00212976)
(2.30176 0 0.00219134)
(2.12915 0 0.00232846)
(1.94236 0 0.00255341)
(1.73467 0 0.00288186)
(1.50691 0 0.00311209)
(1.23577 0 0.00407786)
(0.963786 0 0.0330976)
(1.48458 0 0.189981)
(1.71257 0 0.324347)
(1.85895 0 0.467144)
(2.03936 0 0.640328)
(2.24822 0 0.839112)
(2.47332 0 1.05833)
(2.72586 0 1.30231)
(3.00928 0 1.56942)
(3.30713 0 1.84537)
(3.62115 0 2.13051)
(3.97167 0 2.43395)
(4.35456 0 2.7411)
(4.74191 0 3.02545)
(5.14202 0 3.29722)
(5.58272 0 3.56983)
(6.03909 0 3.80884)
(6.45295 0 3.97701)
(6.89744 0 4.14603)
(7.49144 0 4.35257)
(7.86275 0 4.29076)
(7.6083 0 3.86995)
(7.58833 0 3.70847)
(7.79598 0 3.6759)
(7.89537 0 3.58066)
(7.92864 0 3.46493)
(8.0192 0 3.38986)
(8.01085 0 3.26133)
(7.81724 0 3.08616)
(8.04127 0 3.14319)
(8.53947 0 3.29344)
(8.90867 0 3.34076)
(8.99036 0 3.23046)
(8.80264 0 3.01967)
(8.65244 0 2.8535)
(8.65965 0 2.76133)
(8.71207 0 2.68287)
(8.70814 0 2.58244)
(8.6588 0 2.47184)
(8.62485 0 2.37361)
(8.62269 0 2.29009)
(8.62903 0 2.21145)
(8.62806 0 2.13366)
(8.63567 0 2.06337)
(8.67934 0 2.00757)
(8.7625 0 1.96461)
(8.86624 0 1.92784)
(8.98231 0 1.89485)
(9.10675 0 1.86419)
(9.23806 0 1.83554)
(9.37495 0 1.80865)
(9.51973 0 1.78403)
(9.66841 0 1.76046)
(9.81108 0 1.73549)
(9.94737 0 1.70957)
(10.0826 0 1.68446)
(10.22 0 1.66104)
(10.36 0 1.63905)
(10.5039 0 1.6185)
(10.6469 0 1.59623)
(10.7634 0 1.56585)
(10.8412 0 1.52701)
(10.9128 0 1.48885)
(11.0039 0 1.45561)
(11.0932 0 1.42033)
(11.154 0 1.37762)
(11.1895 0 1.33099)
(11.2344 0 1.28829)
(11.3073 0 1.25015)
(11.3712 0 1.20775)
(11.3952 0 1.15712)
(11.4053 0 1.10643)
(11.4426 0 1.06211)
(11.5053 0 1.02012)
(11.5438 0 0.971608)
(11.5416 0 0.9171)
(11.55 0 0.867071)
(11.602 0 0.82381)
(11.6595 0 0.776858)
(11.662 0 0.719009)
(11.6209 0 0.658895)
(11.6249 0 0.609061)
(11.7013 0 0.566356)
(11.7577 0 0.514483)
(11.7367 0 0.450721)
(11.6859 0 0.386874)
(11.6629 0 0.32865)
(11.6734 0 0.273581)
(11.6875 0 0.217903)
(11.6992 0 0.16111)
(11.703 0 0.102634)
(11.6979 0 0.0425494)
(11.6787 0 -0.0200225)
(11.6448 0 -0.0845521)
(11.6105 0 -0.148321)
(11.6053 0 -0.209757)
(11.6234 0 -0.272842)
(11.6017 0 -0.342936)
(11.5273 0 -0.417088)
(11.4584 0 -0.488135)
(11.4482 0 -0.556963)
(11.4525 0 -0.632036)
(11.3893 0 -0.714841)
(11.2557 0 -0.799754)
(11.1276 0 -0.883727)
(11.0192 0 -0.968071)
(10.9105 0 -1.05442)
(10.7912 0 -1.14249)
(10.657 0 -1.23253)
(10.5258 0 -1.32686)
(10.3659 0 -1.42915)
(10.0637 0 -1.53107)
(9.59484 0 -1.61569)
(9.15647 0 -1.69128)
(8.92097 0 -1.80481)
(7.95012 0 -1.86167)
(4.68092 0 -1.34922)
(1.73989 0 -0.619292)
(0.198571 0 -0.0833758)
(-0.213467 0 0.133985)
(-0.231853 0 0.163744)
(-0.137435 0 0.104953)
(-0.0943982 0 0.0776978)
(-0.105119 0 0.0889969)
(-0.107577 0 0.0919614)
(-0.10377 0 0.0880502)
(-0.110665 0 0.0923856)
(-0.126399 0 0.104443)
(-0.137398 0 0.112604)
(-0.154249 0 0.12366)
(-0.178215 0 0.138159)
(-0.219226 0 0.16375)
(-0.266386 0 0.192012)
(-0.309437 0 0.214868)
(-0.354206 0 0.235541)
(-0.398312 0 0.252391)
(-0.453256 0 0.272903)
(-0.512429 0 0.292124)
(-0.576972 0 0.31058)
(-0.649816 0 0.329179)
(-0.728346 0 0.345994)
(-0.81105 0 0.360239)
(-0.895658 0 0.371262)
(-0.989249 0 0.382326)
(-1.08293 0 0.391035)
(-1.19126 0 0.401653)
(-1.28887 0 0.404566)
(-1.37202 0 0.40123)
(-1.44522 0 0.395368)
(-1.51622 0 0.388649)
(-1.60197 0 0.38434)
(-1.68902 0 0.37966)
(-1.76808 0 0.373511)
(-1.8484 0 0.368841)
(-1.92905 0 0.365229)
(-2.00908 0 0.360925)
(-2.09389 0 0.35747)
(-2.16469 0 0.350977)
(-2.22213 0 0.343365)
(-2.27718 0 0.336792)
(-2.35421 0 0.333749)
(-2.41446 0 0.327358)
(-2.46217 0 0.317677)
(-2.50213 0 0.305942)
(-2.54637 0 0.293828)
(-2.57642 0 0.278196)
(-2.57043 0 0.254448)
(-2.57276 0 0.229067)
(-2.55946 0 0.198258)
(-2.52398 0 0.165085)
(-2.5248 0 0.132286)
(-2.49141 0 0.0974229)
(-2.39696 0 0.0638291)
(-2.2429 0 0.0349244)
(-2.10821 0 0.0192999)
(-2.00547 0 0.0165572)
(-1.90882 0 0.0164925)
(-1.8603 0 0.0172841)
(-1.85044 0 0.0210246)
(-1.75491 0 0.0197514)
(-1.58173 0 0.00207766)
(-1.42021 0 -0.00215503)
(-1.23998 0 -0.0025621)
(-1.07553 0 -0.00196751)
(-0.930973 0 -0.00160026)
(-0.80203 0 -0.00194263)
(-0.639361 0 -0.00222635)
(-0.491666 0 -0.00187079)
(-0.335074 0 -0.00204478)
(-0.193662 0 -0.00177265)
(-0.0457699 0 -0.00228347)
(0.130854 0 -0.00215871)
(0.270388 0 -0.00176309)
(0.417462 0 -0.00197154)
(0.567858 0 -0.00174511)
(0.693772 0 -0.00192517)
(0.852734 0 -0.00201414)
(1.00234 0 -0.00205944)
(1.1634 0 -0.00205198)
(1.2948 0 -0.00156019)
(1.42052 0 -0.00190948)
(1.57733 0 -0.00199788)
(1.70249 0 -0.00144134)
(1.82602 0 -0.00167925)
(1.93746 0 -0.00127981)
(2.0477 0 -0.00149769)
(2.16318 0 -0.00147291)
(2.28049 0 -0.00165911)
(2.40594 0 -0.00158222)
(2.51373 0 -0.00127942)
(2.61126 0 -0.00144139)
(2.72888 0 -0.00150043)
(2.83602 0 -0.00134743)
(2.93319 0 -0.00113838)
(3.02919 0 -0.00137267)
(3.12999 0 -0.00123699)
(3.21989 0 -0.00107177)
(3.30054 0 -0.00098077)
(3.38069 0 -0.00108088)
(3.46113 0 -0.00097076)
(3.5312 0 -0.000971634)
(3.6068 0 -0.00092579)
(3.67889 0 -0.000926249)
(3.74994 0 -0.000922149)
(3.8216 0 -0.000908884)
(3.89385 0 -0.00093496)
(3.96377 0 -0.000878461)
(4.0267 0 -0.000761864)
(4.09059 0 -0.000759186)
(4.14358 0 -0.000693994)
(4.19944 0 -0.000723761)
(4.25361 0 -0.000680226)
(4.3116 0 -0.000774352)
(4.36518 0 -0.000621879)
(4.40946 0 -0.000505995)
(4.4516 0 -0.000517071)
(4.49008 0 -0.000489318)
(4.53199 0 -0.000558459)
(4.57324 0 -0.000484767)
(4.61241 0 -0.000472704)
(4.6488 0 -0.000457116)
(4.68177 0 -0.000407291)
(4.71592 0 -0.000443882)
(4.7512 0 -0.000459111)
(4.78713 0 -0.000456063)
(4.81889 0 -0.000347102)
(4.84878 0 -0.000379985)
(4.87797 0 -0.000352455)
(4.90628 0 -0.000365674)
(4.93433 0 -0.000348733)
(4.96199 0 -0.00029752)
(4.98448 0 -0.00029041)
(5.00846 0 -0.000318121)
(5.03506 0 -0.000348817)
(5.06265 0 -0.00032798)
(5.08592 0 -0.000289295)
(5.10773 0 -0.000240092)
(5.12906 0 -0.000254295)
(5.14951 0 -0.000275842)
(5.17014 0 -0.000226431)
(5.18695 0 -0.000182471)
(5.2011 0 -0.000134315)
(5.213 0 -0.000159089)
(5.22584 0 -0.000149925)
(5.23911 0 -0.000190495)
(5.25587 0 -0.000233944)
(5.27431 0 -0.000230063)
(5.28831 0 -0.000106706)
(5.29935 0 -0.000128463)
(5.31 0 -0.000139875)
(5.32323 0 -0.000175141)
(5.33768 0 -0.000199788)
(5.35135 0 -0.000107344)
(5.36154 0 -0.000149021)
(5.37669 0 -0.000199335)
(5.39489 0 -0.000183991)
(5.41245 0 -0.000144628)
(5.4288 0 -0.000123067)
(5.44276 0 -3.04847e-05)
(5.45653 0 -7.2678e-05)
(5.47307 0 -0.000101868)
(5.49093 0 -8.61358e-05)
(5.50591 0 -4.34819e-05)
(11.2935 0 -0.0127404)
(11.2054 0 0.00789644)
(10.8178 0 0.0118684)
(10.5345 0 0.00603181)
(10.3817 0 0.00306308)