/*--------------------------------*- C++ -*----------------------------------*\
  =========                 |
  \\      /  F ield         | OpenFOAM: The Open Source CFD Toolbox
   \\    /   O peration     | Website:  https://openfoam.org
    \\  /    A nd           | Version:  7
     \\/     M anipulation  |
\*---------------------------------------------------------------------------*/
FoamFile
{
    version     2.0;
    format      ascii;
    class       volScalarField;
    location    "2000";
    object      walldist;
}
// * * * * * * * * * * * * * * * * * * * * * * * * * * * * * * * * * * * * * //

dimensions      [0 1 0 0 0 0 0];

internalField   nonuniform List<scalar> 
51626
(
2.17492e-05
2.17492e-05
2.17492e-05
2.17492e-05
2.17492e-05
2.17492e-05
2.17492e-05
2.17492e-05
2.17492e-05
2.17492e-05
2.17492e-05
2.17492e-05
2.17492e-05
2.17492e-05
2.17492e-05
2.17492e-05
2.17492e-05
2.17492e-05
2.17492e-05
2.17492e-05
2.17492e-05
2.17492e-05
2.17492e-05
2.17492e-05
2.17492e-05
2.17492e-05
2.17492e-05
2.17492e-05
2.17492e-05
2.17492e-05
2.17492e-05
2.17492e-05
2.17492e-05
2.17492e-05
2.17492e-05
2.17492e-05
2.17492e-05
2.17492e-05
2.17492e-05
2.17492e-05
2.17492e-05
2.17492e-05
2.17492e-05
2.17492e-05
2.17492e-05
2.17492e-05
2.17492e-05
2.17492e-05
2.17492e-05
2.17492e-05
2.17492e-05
2.17492e-05
2.17492e-05
2.17492e-05
2.17492e-05
2.17492e-05
2.17492e-05
2.17492e-05
2.17492e-05
2.17492e-05
2.17492e-05
2.17492e-05
2.17492e-05
2.17492e-05
2.17492e-05
2.17492e-05
2.17492e-05
2.17492e-05
2.17492e-05
2.17492e-05
2.17492e-05
2.17492e-05
2.17492e-05
2.17492e-05
2.17492e-05
2.17492e-05
2.17492e-05
2.17492e-05
2.17492e-05
2.17492e-05
2.17492e-05
2.17492e-05
2.17492e-05
2.17492e-05
2.17492e-05
2.17492e-05
2.17492e-05
2.17492e-05
2.17492e-05
2.17492e-05
2.17492e-05
2.17492e-05
2.17492e-05
2.17492e-05
2.17492e-05
2.17492e-05
2.17492e-05
2.17492e-05
2.17492e-05
2.17492e-05
2.17492e-05
2.17492e-05
2.17492e-05
2.17492e-05
2.17492e-05
2.17492e-05
2.17492e-05
2.17492e-05
2.17492e-05
2.17492e-05
2.17492e-05
2.17492e-05
2.17492e-05
2.17492e-05
2.17492e-05
2.17492e-05
2.17492e-05
2.17492e-05
2.17492e-05
2.17492e-05
2.17492e-05
2.17492e-05
2.17492e-05
2.17492e-05
2.17492e-05
2.17492e-05
2.17492e-05
2.17492e-05
2.17492e-05
2.17492e-05
2.17492e-05
2.17492e-05
2.17492e-05
2.17492e-05
2.17492e-05
2.17492e-05
2.17492e-05
2.17492e-05
2.17492e-05
2.17492e-05
2.17492e-05
2.17492e-05
2.17492e-05
2.17492e-05
2.17492e-05
2.17492e-05
2.17492e-05
2.17492e-05
2.17492e-05
2.17492e-05
2.17492e-05
2.17492e-05
2.17492e-05
2.17492e-05
2.17492e-05
2.17492e-05
2.17492e-05
2.17492e-05
2.17492e-05
2.17492e-05
2.17492e-05
2.17492e-05
2.17492e-05
2.17492e-05
2.17492e-05
2.17492e-05
2.17492e-05
2.17492e-05
2.17492e-05
2.17492e-05
2.17492e-05
2.17492e-05
2.17492e-05
2.17492e-05
2.17492e-05
2.17492e-05
2.17492e-05
2.17492e-05
2.17492e-05
2.17492e-05
2.17492e-05
2.17492e-05
2.17492e-05
2.17492e-05
2.17492e-05
2.17492e-05
2.17492e-05
2.17492e-05
2.17492e-05
2.17492e-05
2.17492e-05
2.17492e-05
2.17492e-05
2.17492e-05
2.17492e-05
2.17492e-05
2.17492e-05
2.17492e-05
2.17492e-05
2.17492e-05
2.17492e-05
2.17492e-05
2.17492e-05
2.17492e-05
2.17492e-05
2.17492e-05
2.17492e-05
2.17492e-05
2.17492e-05
2.17492e-05
2.17492e-05
2.17492e-05
2.17492e-05
2.17492e-05
2.17492e-05
2.17492e-05
2.17492e-05
2.17492e-05
2.17492e-05
2.17492e-05
2.17492e-05
2.17492e-05
2.17492e-05
2.17492e-05
2.17492e-05
2.17492e-05
2.17492e-05
2.17492e-05
2.17492e-05
2.17492e-05
2.17492e-05
2.17492e-05
2.17492e-05
2.17492e-05
2.17492e-05
2.17492e-05
2.17492e-05
2.17492e-05
2.17463e-05
2.17378e-05
2.17265e-05
2.17152e-05
2.17039e-05
2.16925e-05
2.16812e-05
2.16698e-05
2.16585e-05
2.16471e-05
2.16358e-05
2.16244e-05
2.16131e-05
2.16017e-05
2.15904e-05
2.15785e-05
2.15655e-05
2.15508e-05
2.15346e-05
2.15168e-05
2.14975e-05
2.14768e-05
2.14546e-05
2.14312e-05
2.14065e-05
2.13807e-05
2.1354e-05
2.13263e-05
2.1298e-05
2.12689e-05
2.12393e-05
2.12093e-05
2.11791e-05
2.11488e-05
2.11185e-05
2.10883e-05
2.10585e-05
2.10291e-05
2.10003e-05
2.09721e-05
2.09448e-05
2.09184e-05
2.0893e-05
2.08688e-05
2.08457e-05
2.0824e-05
2.08037e-05
2.07848e-05
2.07674e-05
2.07515e-05
2.07372e-05
2.07244e-05
2.07128e-05
2.07015e-05
2.06903e-05
2.06791e-05
2.06679e-05
2.06567e-05
2.06454e-05
2.06342e-05
2.0623e-05
2.06118e-05
2.06005e-05
2.05893e-05
2.05781e-05
2.05668e-05
2.05556e-05
2.05444e-05
2.05331e-05
2.05219e-05
2.05106e-05
2.04994e-05
2.04882e-05
2.04769e-05
2.04657e-05
2.04544e-05
2.04431e-05
2.04319e-05
2.04206e-05
2.04094e-05
2.03981e-05
2.03868e-05
2.03756e-05
2.03643e-05
2.0353e-05
2.03418e-05
2.03305e-05
2.03192e-05
2.0308e-05
2.02967e-05
2.02854e-05
2.02741e-05
2.02628e-05
2.02516e-05
2.02403e-05
2.0229e-05
2.02177e-05
2.02064e-05
2.01951e-05
2.01838e-05
2.01725e-05
2.01501e-05
1.99793e-05
1.9774e-05
1.94919e-05
1.91402e-05
1.87549e-05
1.83594e-05
1.79692e-05
1.76052e-05
1.72846e-05
1.70033e-05
1.67623e-05
1.65792e-05
1.6457e-05
1.63736e-05
1.63271e-05
1.63336e-05
1.63824e-05
1.64335e-05
1.65202e-05
1.67264e-05
1.69356e-05
1.70098e-05
1.70748e-05
1.71443e-05
1.72016e-05
1.72431e-05
1.72964e-05
1.73242e-05
1.72971e-05
1.72844e-05
1.73052e-05
1.73551e-05
1.74042e-05
1.74338e-05
1.74508e-05
1.7469e-05
1.74894e-05
1.75066e-05
1.75187e-05
1.75276e-05
1.75351e-05
1.75411e-05
1.75441e-05
1.75441e-05
1.75422e-05
1.75392e-05
1.75353e-05
1.75306e-05
1.75253e-05
1.75193e-05
1.75127e-05
1.75057e-05
1.74984e-05
1.74909e-05
1.74828e-05
1.74743e-05
1.74653e-05
1.74561e-05
1.74472e-05
1.74393e-05
1.74321e-05
1.74245e-05
1.74165e-05
1.7409e-05
1.74024e-05
1.73961e-05
1.73893e-05
1.73824e-05
1.73764e-05
1.73712e-05
1.73658e-05
1.73601e-05
1.73547e-05
1.73501e-05
1.73459e-05
1.73415e-05
1.7337e-05
1.73331e-05
1.73302e-05
1.73275e-05
1.73242e-05
1.7321e-05
1.73186e-05
1.73171e-05
1.73156e-05
1.73141e-05
1.73128e-05
1.73118e-05
1.7311e-05
1.73105e-05
1.73102e-05
1.73102e-05
1.73103e-05
1.73107e-05
1.73114e-05
1.73122e-05
1.73129e-05
1.73134e-05
1.73143e-05
1.73156e-05
1.73166e-05
1.73166e-05
1.73158e-05
1.73149e-05
1.73138e-05
1.7312e-05
1.73093e-05
1.73053e-05
1.72996e-05
1.72901e-05
1.72732e-05
1.72495e-05
1.72246e-05
1.71932e-05
1.70927e-05
1.68305e-05
1.64713e-05
1.57848e-05
1.50455e-05
1.45087e-05
1.41268e-05
1.38971e-05
1.38138e-05
1.38103e-05
1.39174e-05
1.40984e-05
1.4215e-05
1.43291e-05
1.45179e-05
1.47765e-05
1.50449e-05
1.52927e-05
1.55428e-05
1.58159e-05
1.61029e-05
1.6391e-05
1.66773e-05
1.69589e-05
1.7234e-05
1.75007e-05
1.77557e-05
1.79941e-05
1.82127e-05
1.84076e-05
1.85843e-05
1.87483e-05
1.88949e-05
1.90214e-05
1.91344e-05
1.92375e-05
1.93293e-05
1.94097e-05
1.94791e-05
1.95398e-05
1.95954e-05
1.96464e-05
1.96931e-05
1.97352e-05
1.97729e-05
1.98075e-05
1.98403e-05
1.98728e-05
1.9905e-05
1.99359e-05
1.99666e-05
1.99983e-05
2.00295e-05
2.00592e-05
2.00862e-05
2.01093e-05
2.01273e-05
2.01399e-05
2.01475e-05
2.01511e-05
2.01525e-05
2.01536e-05
2.01548e-05
2.01557e-05
2.01571e-05
2.01596e-05
2.01598e-05
2.01598e-05
2.01598e-05
2.01598e-05
2.01598e-05
2.01598e-05
2.01598e-05
2.01598e-05
2.01598e-05
2.01598e-05
2.01598e-05
2.01598e-05
2.01598e-05
2.01598e-05
2.01598e-05
2.01598e-05
2.01598e-05
2.01598e-05
2.01598e-05
2.01598e-05
2.01598e-05
2.01598e-05
2.01598e-05
2.01598e-05
2.01598e-05
2.01598e-05
2.01598e-05
2.01598e-05
2.01598e-05
2.01598e-05
2.01598e-05
2.01598e-05
2.01598e-05
2.01598e-05
2.01598e-05
2.01598e-05
2.01598e-05
2.01598e-05
2.01598e-05
2.01598e-05
2.01598e-05
2.01598e-05
2.01598e-05
2.01598e-05
2.01598e-05
2.01598e-05
2.01598e-05
2.01598e-05
2.01598e-05
2.01598e-05
2.01598e-05
2.01598e-05
2.01598e-05
2.01598e-05
2.01598e-05
2.01598e-05
2.01598e-05
2.01598e-05
2.01598e-05
2.01598e-05
2.01598e-05
2.01598e-05
2.01598e-05
2.01598e-05
2.01598e-05
2.01598e-05
2.01598e-05
2.01598e-05
2.01598e-05
2.01598e-05
2.01598e-05
2.01598e-05
2.01598e-05
2.01598e-05
2.01598e-05
2.01598e-05
2.01598e-05
2.01598e-05
2.01598e-05
2.01598e-05
2.01598e-05
2.01598e-05
2.01598e-05
2.01598e-05
2.01598e-05
2.01598e-05
2.01598e-05
2.01598e-05
2.01598e-05
2.01598e-05
2.01598e-05
2.01598e-05
2.01606e-05
2.0165e-05
2.01755e-05
2.01928e-05
2.02165e-05
2.02457e-05
2.02793e-05
2.0316e-05
2.03546e-05
2.03941e-05
6.73557e-05
6.73557e-05
6.73557e-05
6.73557e-05
6.73557e-05
6.73557e-05
6.73557e-05
6.73557e-05
6.73557e-05
6.73557e-05
6.73557e-05
6.73557e-05
6.73557e-05
6.73557e-05
6.73557e-05
6.73557e-05
6.73557e-05
6.73557e-05
6.73557e-05
6.73557e-05
6.73557e-05
6.73557e-05
6.73557e-05
6.73557e-05
6.73557e-05
6.73557e-05
6.73557e-05
6.73557e-05
6.73557e-05
6.73557e-05
6.73557e-05
6.73557e-05
6.73557e-05
6.73557e-05
6.73557e-05
6.73557e-05
6.73557e-05
6.73557e-05
6.73557e-05
6.73557e-05
6.73557e-05
6.73557e-05
6.73557e-05
6.73557e-05
6.73557e-05
6.73557e-05
6.73557e-05
6.73557e-05
6.73557e-05
6.73557e-05
6.73557e-05
6.73557e-05
6.73557e-05
6.73557e-05
6.73557e-05
6.73557e-05
6.73557e-05
6.73557e-05
6.73557e-05
6.73557e-05
6.73557e-05
6.73557e-05
6.73557e-05
6.73557e-05
6.73557e-05
6.73557e-05
6.73557e-05
6.73557e-05
6.73557e-05
6.73557e-05
6.73557e-05
6.73557e-05
6.73557e-05
6.73557e-05
6.73557e-05
6.73557e-05
6.73557e-05
6.73557e-05
6.73557e-05
6.73557e-05
6.73557e-05
6.73557e-05
6.73557e-05
6.73557e-05
6.73557e-05
6.73557e-05
6.73557e-05
6.73557e-05
6.73557e-05
6.73557e-05
6.73557e-05
6.73557e-05
6.73557e-05
6.73557e-05
6.73557e-05
6.73557e-05
6.73557e-05
6.73557e-05
6.73557e-05
6.73557e-05
6.73557e-05
6.73557e-05
6.73557e-05
6.73557e-05
6.73557e-05
6.73557e-05
6.73557e-05
6.73557e-05
6.73557e-05
6.73557e-05
6.73557e-05
6.73557e-05
6.73557e-05
6.73557e-05
6.73557e-05
6.73557e-05
6.73557e-05
6.73557e-05
6.73557e-05
6.73557e-05
6.73557e-05
6.73557e-05
6.73557e-05
6.73557e-05
6.73557e-05
6.73557e-05
6.73557e-05
6.73557e-05
6.73557e-05
6.73557e-05
6.73557e-05
6.73557e-05
6.73557e-05
6.73557e-05
6.73557e-05
6.73557e-05
6.73557e-05
6.73557e-05
6.73557e-05
6.73557e-05
6.73557e-05
6.73557e-05
6.73557e-05
6.73557e-05
6.73557e-05
6.73557e-05
6.73557e-05
6.73557e-05
6.73557e-05
6.73557e-05
6.73557e-05
6.73557e-05
6.73557e-05
6.73557e-05
6.73557e-05
6.73557e-05
6.73557e-05
6.73557e-05
6.73557e-05
6.73557e-05
6.73557e-05
6.73557e-05
6.73557e-05
6.73557e-05
6.73557e-05
6.73557e-05
6.73557e-05
6.73557e-05
6.73557e-05
6.73557e-05
6.73557e-05
6.73557e-05
6.73557e-05
6.73557e-05
6.73557e-05
6.73557e-05
6.73557e-05
6.73557e-05
6.73557e-05
6.73557e-05
6.73557e-05
6.73557e-05
6.73557e-05
6.73557e-05
6.73557e-05
6.73557e-05
6.73557e-05
6.73557e-05
6.73557e-05
6.73557e-05
6.73557e-05
6.73557e-05
6.73557e-05
6.73557e-05
6.73557e-05
6.73557e-05
6.73557e-05
6.73557e-05
6.73557e-05
6.73557e-05
6.73557e-05
6.73557e-05
6.73557e-05
6.73557e-05
6.73557e-05
6.73557e-05
6.73557e-05
6.73557e-05
6.73557e-05
6.73557e-05
6.73557e-05
6.73557e-05
6.73557e-05
6.73557e-05
6.73557e-05
6.73557e-05
6.73557e-05
6.73557e-05
6.73557e-05
6.73557e-05
6.73557e-05
6.73557e-05
6.73557e-05
6.73557e-05
6.73557e-05
6.73557e-05
6.73557e-05
6.73557e-05
6.73557e-05
6.73557e-05
6.73557e-05
6.73557e-05
6.73557e-05
6.73557e-05
6.73557e-05
6.73557e-05
6.73557e-05
6.73557e-05
6.73422e-05
6.73017e-05
6.7247e-05
6.71924e-05
6.71377e-05
6.7083e-05
6.70284e-05
6.69737e-05
6.69189e-05
6.68642e-05
6.68095e-05
6.67547e-05
6.67e-05
6.66452e-05
6.65904e-05
6.65343e-05
6.64743e-05
6.64094e-05
6.63397e-05
6.62653e-05
6.61862e-05
6.61026e-05
6.60147e-05
6.59227e-05
6.58271e-05
6.57282e-05
6.56262e-05
6.55215e-05
6.54145e-05
6.53055e-05
6.51949e-05
6.50831e-05
6.49705e-05
6.48577e-05
6.4745e-05
6.46328e-05
6.45215e-05
6.44117e-05
6.43037e-05
6.41975e-05
6.4094e-05
6.39935e-05
6.3896e-05
6.3802e-05
6.37118e-05
6.36255e-05
6.35434e-05
6.34659e-05
6.33928e-05
6.33244e-05
6.32609e-05
6.32019e-05
6.31465e-05
6.30923e-05
6.30383e-05
6.29842e-05
6.29301e-05
6.2876e-05
6.28219e-05
6.27678e-05
6.27137e-05
6.26596e-05
6.26054e-05
6.25513e-05
6.24971e-05
6.24429e-05
6.23888e-05
6.23346e-05
6.22804e-05
6.22262e-05
6.2172e-05
6.21177e-05
6.20635e-05
6.20093e-05
6.1955e-05
6.19008e-05
6.18465e-05
6.17922e-05
6.17379e-05
6.16836e-05
6.16293e-05
6.1575e-05
6.15207e-05
6.14664e-05
6.14121e-05
6.13577e-05
6.13034e-05
6.1249e-05
6.11946e-05
6.11403e-05
6.10859e-05
6.10315e-05
6.09771e-05
6.09227e-05
6.08683e-05
6.08139e-05
6.07594e-05
6.0705e-05
6.06505e-05
6.05961e-05
6.05416e-05
6.0483e-05
6.04238e-05
6.03416e-05
6.02276e-05
6.0083e-05
5.99141e-05
5.97262e-05
5.95234e-05
5.93106e-05
5.90923e-05
5.88699e-05
5.86455e-05
5.84227e-05
5.82042e-05
5.79888e-05
5.77776e-05
5.75741e-05
5.73787e-05
5.71875e-05
5.70053e-05
5.68462e-05
5.6698e-05
5.65402e-05
5.63867e-05
5.6239e-05
5.60949e-05
5.59534e-05
5.58184e-05
5.56842e-05
5.55445e-05
5.54082e-05
5.52793e-05
5.51592e-05
5.50444e-05
5.49315e-05
5.48208e-05
5.47139e-05
5.46111e-05
5.45067e-05
5.4406e-05
5.43086e-05
5.42142e-05
5.41228e-05
5.4034e-05
5.39475e-05
5.38633e-05
5.37814e-05
5.37017e-05
5.3624e-05
5.35486e-05
5.34751e-05
5.34036e-05
5.33339e-05
5.32661e-05
5.32001e-05
5.31358e-05
5.30731e-05
5.30119e-05
5.29523e-05
5.28943e-05
5.2838e-05
5.27834e-05
5.27305e-05
5.26791e-05
5.26293e-05
5.25812e-05
5.2535e-05
5.24902e-05
5.2447e-05
5.24055e-05
5.23658e-05
5.23278e-05
5.22914e-05
5.22565e-05
5.22235e-05
5.21922e-05
5.21625e-05
5.21344e-05
5.2108e-05
5.20834e-05
5.20609e-05
5.20399e-05
5.20204e-05
5.20028e-05
5.19871e-05
5.19735e-05
5.19618e-05
5.19519e-05
5.19438e-05
5.19376e-05
5.19333e-05
5.19309e-05
5.19306e-05
5.19323e-05
5.19362e-05
5.1942e-05
5.195e-05
5.196e-05
5.19724e-05
5.19873e-05
5.20046e-05
5.20243e-05
5.20463e-05
5.20713e-05
5.20993e-05
5.21303e-05
5.21645e-05
5.22018e-05
5.22425e-05
5.22865e-05
5.23341e-05
5.23851e-05
5.24407e-05
5.25019e-05
5.25682e-05
5.26322e-05
5.26874e-05
5.27524e-05
5.27991e-05
5.28776e-05
5.30163e-05
5.31965e-05
5.34095e-05
5.36484e-05
5.39005e-05
5.41673e-05
5.44455e-05
5.4706e-05
5.4964e-05
5.52288e-05
5.54976e-05
5.57621e-05
5.60184e-05
5.62695e-05
5.65174e-05
5.676e-05
5.69954e-05
5.72227e-05
5.74413e-05
5.76506e-05
5.78501e-05
5.80392e-05
5.82173e-05
5.8384e-05
5.85392e-05
5.86841e-05
5.88197e-05
5.89455e-05
5.90619e-05
5.91702e-05
5.92714e-05
5.93655e-05
5.94529e-05
5.95345e-05
5.96109e-05
5.9683e-05
5.97511e-05
5.98155e-05
5.98763e-05
5.99339e-05
5.99888e-05
6.00411e-05
6.00911e-05
6.01387e-05
6.01859e-05
6.02322e-05
6.02756e-05
6.03153e-05
6.03508e-05
6.03816e-05
6.0407e-05
6.04268e-05
6.04411e-05
6.04505e-05
6.04559e-05
6.04597e-05
6.04633e-05
6.04669e-05
6.0471e-05
6.04758e-05
6.0479e-05
6.04795e-05
6.04795e-05
6.04795e-05
6.04795e-05
6.04795e-05
6.04795e-05
6.04795e-05
6.04795e-05
6.04795e-05
6.04795e-05
6.04795e-05
6.04795e-05
6.04795e-05
6.04795e-05
6.04795e-05
6.04795e-05
6.04795e-05
6.04795e-05
6.04795e-05
6.04795e-05
6.04795e-05
6.04795e-05
6.04795e-05
6.04795e-05
6.04795e-05
6.04795e-05
6.04795e-05
6.04795e-05
6.04795e-05
6.04795e-05
6.04795e-05
6.04795e-05
6.04795e-05
6.04795e-05
6.04795e-05
6.04795e-05
6.04795e-05
6.04795e-05
6.04795e-05
6.04795e-05
6.04795e-05
6.04795e-05
6.04795e-05
6.04795e-05
6.04795e-05
6.04795e-05
6.04795e-05
6.04795e-05
6.04795e-05
6.04795e-05
6.04795e-05
6.04795e-05
6.04795e-05
6.04795e-05
6.04795e-05
6.04795e-05
6.04795e-05
6.04795e-05
6.04795e-05
6.04795e-05
6.04795e-05
6.04795e-05
6.04795e-05
6.04795e-05
6.04795e-05
6.04795e-05
6.04795e-05
6.04795e-05
6.04795e-05
6.04795e-05
6.04795e-05
6.04795e-05
6.04795e-05
6.04795e-05
6.04795e-05
6.04795e-05
6.04795e-05
6.04795e-05
6.04795e-05
6.04795e-05
6.04795e-05
6.04795e-05
6.04795e-05
6.04795e-05
6.04795e-05
6.04795e-05
6.04795e-05
6.04795e-05
6.04795e-05
6.04795e-05
6.04795e-05
6.04795e-05
6.04819e-05
6.0495e-05
6.05268e-05
6.05788e-05
6.06501e-05
6.07381e-05
6.08388e-05
6.09491e-05
6.10652e-05
6.11834e-05
0.00011738
0.00011738
0.00011738
0.00011738
0.00011738
0.00011738
0.00011738
0.00011738
0.00011738
0.00011738
0.00011738
0.00011738
0.00011738
0.00011738
0.00011738
0.00011738
0.00011738
0.00011738
0.00011738
0.00011738
0.00011738
0.00011738
0.00011738
0.00011738
0.00011738
0.00011738
0.00011738
0.00011738
0.00011738
0.00011738
0.00011738
0.00011738
0.00011738
0.00011738
0.00011738
0.00011738
0.00011738
0.00011738
0.00011738
0.00011738
0.00011738
0.00011738
0.00011738
0.00011738
0.00011738
0.00011738
0.00011738
0.00011738
0.00011738
0.00011738
0.00011738
0.00011738
0.00011738
0.00011738
0.00011738
0.00011738
0.00011738
0.00011738
0.00011738
0.00011738
0.00011738
0.00011738
0.00011738
0.00011738
0.00011738
0.00011738
0.00011738
0.00011738
0.00011738
0.00011738
0.00011738
0.00011738
0.00011738
0.00011738
0.00011738
0.00011738
0.00011738
0.00011738
0.00011738
0.00011738
0.00011738
0.00011738
0.00011738
0.00011738
0.00011738
0.00011738
0.00011738
0.00011738
0.00011738
0.00011738
0.00011738
0.00011738
0.00011738
0.00011738
0.00011738
0.00011738
0.00011738
0.00011738
0.00011738
0.00011738
0.00011738
0.00011738
0.00011738
0.00011738
0.00011738
0.00011738
0.00011738
0.00011738
0.00011738
0.00011738
0.00011738
0.00011738
0.00011738
0.00011738
0.00011738
0.00011738
0.00011738
0.00011738
0.00011738
0.00011738
0.00011738
0.00011738
0.00011738
0.00011738
0.00011738
0.00011738
0.00011738
0.00011738
0.00011738
0.00011738
0.00011738
0.00011738
0.00011738
0.00011738
0.00011738
0.00011738
0.00011738
0.00011738
0.00011738
0.00011738
0.00011738
0.00011738
0.00011738
0.00011738
0.00011738
0.00011738
0.00011738
0.00011738
0.00011738
0.00011738
0.00011738
0.00011738
0.00011738
0.00011738
0.00011738
0.00011738
0.00011738
0.00011738
0.00011738
0.00011738
0.00011738
0.00011738
0.00011738
0.00011738
0.00011738
0.00011738
0.00011738
0.00011738
0.00011738
0.00011738
0.00011738
0.00011738
0.00011738
0.00011738
0.00011738
0.00011738
0.00011738
0.00011738
0.00011738
0.00011738
0.00011738
0.00011738
0.00011738
0.00011738
0.00011738
0.00011738
0.00011738
0.00011738
0.00011738
0.00011738
0.00011738
0.00011738
0.00011738
0.00011738
0.00011738
0.00011738
0.00011738
0.00011738
0.00011738
0.00011738
0.00011738
0.00011738
0.00011738
0.00011738
0.00011738
0.00011738
0.00011738
0.00011738
0.00011738
0.00011738
0.00011738
0.00011738
0.00011738
0.00011738
0.00011738
0.00011738
0.00011738
0.00011738
0.00011738
0.00011738
0.00011738
0.00011738
0.00011738
0.00011738
0.00011738
0.00011738
0.00011738
0.00011738
0.00011738
0.00011738
0.00011738
0.00011738
0.00011738
0.00011738
0.00011738
0.00011738
0.00011738
0.00011738
0.000117345
0.000117239
0.000117098
0.000116957
0.000116816
0.000116674
0.000116533
0.000116392
0.00011625
0.000116109
0.000115967
0.000115826
0.000115684
0.000115543
0.000115401
0.000115257
0.000115106
0.000114947
0.00011478
0.000114604
0.000114421
0.000114229
0.00011403
0.000113824
0.000113612
0.000113394
0.000113172
0.000112944
0.000112713
0.000112478
0.00011224
0.000112001
0.00011176
0.000111519
0.000111278
0.000111038
0.0001108
0.000110564
0.000110332
0.000110103
0.000109878
0.000109659
0.000109445
0.000109237
0.000109035
0.00010884
0.000108653
0.000108473
0.000108301
0.000108137
0.000107981
0.000107833
0.000107691
0.000107551
0.000107411
0.000107272
0.000107132
0.000106992
0.000106852
0.000106712
0.000106573
0.000106433
0.000106293
0.000106153
0.000106013
0.000105873
0.000105733
0.000105593
0.000105453
0.000105313
0.000105173
0.000105032
0.000104892
0.000104752
0.000104612
0.000104472
0.000104331
0.000104191
0.000104051
0.00010391
0.00010377
0.00010363
0.000103489
0.000103349
0.000103209
0.000103068
0.000102928
0.000102787
0.000102647
0.000102506
0.000102366
0.000102225
0.000102084
0.000101944
0.000101803
0.000101663
0.000101522
0.000101381
0.000101241
0.0001011
0.000100959
0.000100821
0.00010072
0.000100599
0.00010043
0.000100216
9.99632e-05
9.96789e-05
9.93691e-05
9.904e-05
9.86979e-05
9.83459e-05
9.79871e-05
9.76265e-05
9.72681e-05
9.6912e-05
9.65599e-05
9.62164e-05
9.5883e-05
9.5556e-05
9.52412e-05
9.49542e-05
9.46851e-05
9.44116e-05
9.41458e-05
9.38894e-05
9.364e-05
9.33964e-05
9.31624e-05
9.29322e-05
9.26982e-05
9.24683e-05
9.22478e-05
9.2039e-05
9.1839e-05
9.16444e-05
9.14546e-05
9.12711e-05
9.10944e-05
9.09175e-05
9.07454e-05
9.05788e-05
9.04175e-05
9.02613e-05
9.01099e-05
8.99626e-05
8.98195e-05
8.96803e-05
8.9545e-05
8.94135e-05
8.92854e-05
8.91609e-05
8.90398e-05
8.89218e-05
8.88072e-05
8.86955e-05
8.85869e-05
8.8481e-05
8.83778e-05
8.82772e-05
8.81792e-05
8.80841e-05
8.7992e-05
8.79026e-05
8.78158e-05
8.77318e-05
8.76506e-05
8.75724e-05
8.74968e-05
8.74239e-05
8.73539e-05
8.72867e-05
8.72225e-05
8.7161e-05
8.71022e-05
8.70463e-05
8.69933e-05
8.69432e-05
8.68958e-05
8.68511e-05
8.68097e-05
8.67714e-05
8.6736e-05
8.67031e-05
8.66732e-05
8.66467e-05
8.66236e-05
8.66038e-05
8.6587e-05
8.65734e-05
8.65629e-05
8.65556e-05
8.65516e-05
8.6551e-05
8.65539e-05
8.65604e-05
8.65704e-05
8.65838e-05
8.66009e-05
8.6622e-05
8.66474e-05
8.66768e-05
8.67102e-05
8.67479e-05
8.67906e-05
8.68385e-05
8.68917e-05
8.69503e-05
8.70144e-05
8.70842e-05
8.71602e-05
8.72424e-05
8.73316e-05
8.74293e-05
8.75368e-05
8.76535e-05
8.77744e-05
8.78992e-05
8.80505e-05
8.82044e-05
8.84131e-05
8.86994e-05
8.90385e-05
8.94174e-05
8.98263e-05
9.02503e-05
9.06893e-05
9.11372e-05
9.1565e-05
9.19893e-05
9.24187e-05
9.28493e-05
9.32719e-05
9.36826e-05
9.40844e-05
9.44788e-05
9.48634e-05
9.52356e-05
9.55944e-05
9.59389e-05
9.62683e-05
9.6582e-05
9.68791e-05
9.7159e-05
9.74215e-05
9.76668e-05
9.78962e-05
9.8111e-05
9.8311e-05
9.84967e-05
9.86701e-05
9.88322e-05
9.89834e-05
9.91245e-05
9.92564e-05
9.93805e-05
9.94978e-05
9.96088e-05
9.97138e-05
9.98132e-05
9.99075e-05
9.99974e-05
0.000100083
0.000100165
0.000100244
0.000100321
0.000100397
0.000100468
0.000100532
0.00010059
0.00010064
0.000100681
0.000100713
0.000100736
0.000100751
0.00010076
0.000100766
0.000100772
0.000100778
0.000100785
0.000100793
0.000100798
0.000100799
0.000100799
0.000100799
0.000100799
0.000100799
0.000100799
0.000100799
0.000100799
0.000100799
0.000100799
0.000100799
0.000100799
0.000100799
0.000100799
0.000100799
0.000100799
0.000100799
0.000100799
0.000100799
0.000100799
0.000100799
0.000100799
0.000100799
0.000100799
0.000100799
0.000100799
0.000100799
0.000100799
0.000100799
0.000100799
0.000100799
0.000100799
0.000100799
0.000100799
0.000100799
0.000100799
0.000100799
0.000100799
0.000100799
0.000100799
0.000100799
0.000100799
0.000100799
0.000100799
0.000100799
0.000100799
0.000100799
0.000100799
0.000100799
0.000100799
0.000100799
0.000100799
0.000100799
0.000100799
0.000100799
0.000100799
0.000100799
0.000100799
0.000100799
0.000100799
0.000100799
0.000100799
0.000100799
0.000100799
0.000100799
0.000100799
0.000100799
0.000100799
0.000100799
0.000100799
0.000100799
0.000100799
0.000100799
0.000100799
0.000100799
0.000100799
0.000100799
0.000100799
0.000100799
0.000100799
0.000100799
0.000100799
0.000100799
0.000100799
0.000100799
0.000100799
0.000100799
0.000100799
0.000100799
0.000100799
0.000100799
0.000100799
0.000100803
0.000100825
0.000100878
0.000100964
0.000101083
0.000101229
0.000101397
0.000101581
0.000101774
0.000101971
0.000172242
0.000172242
0.000172242
0.000172242
0.000172242
0.000172242
0.000172242
0.000172242
0.000172242
0.000172242
0.000172242
0.000172242
0.000172242
0.000172242
0.000172242
0.000172242
0.000172242
0.000172242
0.000172242
0.000172242
0.000172242
0.000172242
0.000172242
0.000172242
0.000172242
0.000172242
0.000172242
0.000172242
0.000172242
0.000172242
0.000172242
0.000172242
0.000172242
0.000172242
0.000172242
0.000172242
0.000172242
0.000172242
0.000172242
0.000172242
0.000172242
0.000172242
0.000172242
0.000172242
0.000172242
0.000172242
0.000172242
0.000172242
0.000172242
0.000172242
0.000172242
0.000172242
0.000172242
0.000172242
0.000172242
0.000172242
0.000172242
0.000172242
0.000172242
0.000172242
0.000172242
0.000172242
0.000172242
0.000172242
0.000172242
0.000172242
0.000172242
0.000172242
0.000172242
0.000172242
0.000172242
0.000172242
0.000172242
0.000172242
0.000172242
0.000172242
0.000172242
0.000172242
0.000172242
0.000172242
0.000172242
0.000172242
0.000172242
0.000172242
0.000172242
0.000172242
0.000172242
0.000172242
0.000172242
0.000172242
0.000172242
0.000172242
0.000172242
0.000172242
0.000172242
0.000172242
0.000172242
0.000172242
0.000172242
0.000172242
0.000172242
0.000172242
0.000172242
0.000172242
0.000172242
0.000172242
0.000172242
0.000172242
0.000172242
0.000172242
0.000172242
0.000172242
0.000172242
0.000172242
0.000172242
0.000172242
0.000172242
0.000172242
0.000172242
0.000172242
0.000172242
0.000172242
0.000172242
0.000172242
0.000172242
0.000172242
0.000172242
0.000172242
0.000172242
0.000172242
0.000172242
0.000172242
0.000172242
0.000172242
0.000172242
0.000172242
0.000172242
0.000172242
0.000172242
0.000172242
0.000172242
0.000172242
0.000172242
0.000172242
0.000172242
0.000172242
0.000172242
0.000172242
0.000172242
0.000172242
0.000172242
0.000172242
0.000172242
0.000172242
0.000172242
0.000172242
0.000172242
0.000172242
0.000172242
0.000172242
0.000172242
0.000172242
0.000172242
0.000172242
0.000172242
0.000172242
0.000172242
0.000172242
0.000172242
0.000172242
0.000172242
0.000172242
0.000172242
0.000172242
0.000172242
0.000172242
0.000172242
0.000172242
0.000172242
0.000172242
0.000172242
0.000172242
0.000172242
0.000172242
0.000172242
0.000172242
0.000172242
0.000172242
0.000172242
0.000172242
0.000172242
0.000172242
0.000172242
0.000172242
0.000172242
0.000172242
0.000172242
0.000172242
0.000172242
0.000172242
0.000172242
0.000172242
0.000172242
0.000172242
0.000172242
0.000172242
0.000172242
0.000172242
0.000172242
0.000172242
0.000172242
0.000172242
0.000172242
0.000172242
0.000172242
0.000172242
0.000172242
0.000172242
0.000172242
0.000172242
0.000172242
0.000172242
0.000172242
0.000172242
0.000172242
0.000172242
0.000172242
0.000172242
0.000172242
0.000172242
0.000172242
0.000172242
0.000172242
0.000172242
0.000172242
0.000172242
0.000172242
0.000172242
0.000172173
0.000171968
0.000171693
0.000171417
0.000171142
0.000170867
0.000170591
0.000170316
0.00017004
0.000169765
0.000169489
0.000169213
0.000168938
0.000168662
0.000168386
0.000168106
0.000167817
0.000167516
0.000167202
0.000166876
0.000166539
0.000166191
0.000165831
0.000165462
0.000165084
0.000164697
0.000164303
0.000163903
0.000163497
0.000163086
0.000162671
0.000162254
0.000161835
0.000161415
0.000160996
0.000160579
0.000160164
0.000159753
0.000159346
0.000158945
0.00015855
0.000158163
0.000157783
0.000157412
0.000157051
0.000156699
0.000156358
0.000156029
0.00015571
0.000155403
0.000155107
0.000154823
0.000154548
0.000154275
0.000154003
0.000153731
0.000153458
0.000153186
0.000152914
0.000152641
0.000152368
0.000152096
0.000151823
0.00015155
0.000151278
0.000151005
0.000150732
0.000150459
0.000150186
0.000149913
0.00014964
0.000149367
0.000149094
0.000148821
0.000148548
0.000148274
0.000148001
0.000147728
0.000147454
0.000147181
0.000146908
0.000146634
0.00014636
0.000146087
0.000145813
0.00014554
0.000145266
0.000144992
0.000144718
0.000144444
0.000144171
0.000143897
0.000143623
0.000143349
0.000143075
0.000142801
0.000142527
0.000142252
0.000141978
0.000141704
0.00014143
0.000141174
0.000141016
0.000140856
0.000140633
0.000140349
0.000140013
0.000139632
0.000139215
0.00013877
0.000138304
0.000137823
0.000137329
0.000136831
0.000136333
0.000135836
0.000135343
0.00013486
0.000134388
0.000133925
0.000133478
0.000133063
0.000132673
0.000132284
0.000131905
0.00013154
0.000131186
0.00013084
0.000130507
0.000130181
0.000129852
0.000129529
0.000129217
0.000128919
0.000128634
0.000128358
0.000128089
0.000127829
0.000127578
0.000127329
0.000127085
0.000126849
0.000126621
0.0001264
0.000126186
0.000125978
0.000125776
0.000125579
0.000125389
0.000125203
0.000125023
0.000124847
0.000124676
0.00012451
0.000124348
0.000124191
0.000124038
0.000123889
0.000123744
0.000123602
0.000123464
0.00012333
0.000123201
0.000123075
0.000122953
0.000122834
0.00012272
0.00012261
0.000122504
0.000122401
0.000122302
0.000122208
0.000122117
0.000122031
0.000121948
0.000121869
0.000121795
0.000121724
0.000121657
0.000121594
0.000121536
0.000121482
0.000121432
0.000121386
0.000121344
0.000121306
0.000121274
0.000121246
0.000121222
0.000121203
0.000121188
0.000121178
0.000121172
0.000121171
0.000121175
0.000121185
0.000121199
0.000121218
0.000121242
0.000121272
0.000121308
0.000121349
0.000121396
0.000121449
0.00012151
0.000121578
0.000121653
0.000121736
0.000121827
0.000121926
0.000122034
0.000122151
0.000122278
0.000122418
0.000122572
0.000122739
0.000122917
0.000123111
0.000123349
0.00012361
0.00012395
0.000124384
0.000124882
0.000125427
0.000126005
0.000126601
0.000127212
0.00012783
0.000128425
0.000129016
0.00012961
0.000130202
0.000130783
0.000131348
0.0001319
0.000132441
0.000132968
0.000133477
0.000133967
0.000134437
0.000134887
0.000135314
0.000135719
0.000136101
0.000136459
0.000136795
0.000137109
0.000137403
0.000137677
0.000137932
0.00013817
0.000138393
0.000138601
0.000138796
0.000138978
0.00013915
0.000139313
0.000139467
0.000139612
0.00013975
0.000139881
0.000140006
0.000140125
0.000140239
0.000140349
0.000140457
0.000140562
0.00014066
0.00014075
0.000140829
0.000140898
0.000140954
0.000140999
0.000141031
0.000141052
0.000141064
0.000141073
0.000141081
0.00014109
0.000141099
0.00014111
0.000141118
0.000141119
0.000141119
0.000141119
0.000141119
0.000141119
0.000141119
0.000141119
0.000141119
0.000141119
0.000141119
0.000141119
0.000141119
0.000141119
0.000141119
0.000141119
0.000141119
0.000141119
0.000141119
0.000141119
0.000141119
0.000141119
0.000141119
0.000141119
0.000141119
0.000141119
0.000141119
0.000141119
0.000141119
0.000141119
0.000141119
0.000141119
0.000141119
0.000141119
0.000141119
0.000141119
0.000141119
0.000141119
0.000141119
0.000141119
0.000141119
0.000141119
0.000141119
0.000141119
0.000141119
0.000141119
0.000141119
0.000141119
0.000141119
0.000141119
0.000141119
0.000141119
0.000141119
0.000141119
0.000141119
0.000141119
0.000141119
0.000141119
0.000141119
0.000141119
0.000141119
0.000141119
0.000141119
0.000141119
0.000141119
0.000141119
0.000141119
0.000141119
0.000141119
0.000141119
0.000141119
0.000141119
0.000141119
0.000141119
0.000141119
0.000141119
0.000141119
0.000141119
0.000141119
0.000141119
0.000141119
0.000141119
0.000141119
0.000141119
0.000141119
0.000141119
0.000141119
0.000141119