/*--------------------------------*- C++ -*----------------------------------*\
  =========                 |
  \\      /  F ield         | OpenFOAM: The Open Source CFD Toolbox
   \\    /   O peration     | Website:  https://openfoam.org
    \\  /    A nd           | Version:  7
     \\/     M anipulation  |
\*---------------------------------------------------------------------------*/
FoamFile
{
    version     2.0;
    format      ascii;
    class       volVectorField;
    location    "2000";
    object      wallShearStress;
}
// * * * * * * * * * * * * * * * * * * * * * * * * * * * * * * * * * * * * * //

dimensions      [0 2 -2 0 0 0 0];

internalField   uniform (0 0 0);

boundaryField
{
    inlet
    {
        type            calculated;
        value           uniform (0 0 0);
    }
    bottom
    {
        type            calculated;
        value           nonuniform List<vector> 
622
(
(-1.74782 0 0.00525859)
(-1.72216 0 -0.000804909)
(-1.69135 0 -0.000349345)
(-1.65024 0 -0.000238677)
(-1.61773 0 -0.000163871)
(-1.59425 0 -0.000113409)
(-1.57721 0 -7.66098e-05)
(-1.56521 0 -5.00664e-05)
(-1.55695 0 -3.25069e-05)
(-1.55127 0 -2.14889e-05)
(-1.54729 0 -1.49755e-05)
(-1.54437 0 -1.13925e-05)
(-1.54211 0 -9.53522e-06)
(-1.54022 0 -8.63554e-06)
(-1.53855 0 -8.21334e-06)
(-1.53702 0 -8.02674e-06)
(-1.53556 0 -7.93392e-06)
(-1.53417 0 -7.84518e-06)
(-1.53282 0 -7.72621e-06)
(-1.53151 0 -7.58497e-06)
(-1.53023 0 -7.38913e-06)
(-1.52901 0 -7.16635e-06)
(-1.52782 0 -6.92535e-06)
(-1.52668 0 -6.65231e-06)
(-1.52559 0 -6.37219e-06)
(-1.52454 0 -6.08794e-06)
(-1.52354 0 -5.80164e-06)
(-1.52259 0 -5.49412e-06)
(-1.52169 0 -5.20743e-06)
(-1.52083 0 -4.94225e-06)
(-1.52001 0 -4.67828e-06)
(-1.51924 0 -4.41581e-06)
(-1.51851 0 -4.17537e-06)
(-1.51781 0 -3.93635e-06)
(-1.51716 0 -3.71932e-06)
(-1.51654 0 -3.52422e-06)
(-1.51595 0 -3.3098e-06)
(-1.5154 0 -3.1171e-06)
(-1.51488 0 -2.92545e-06)
(-1.51439 0 -2.77589e-06)
(-1.51392 0 -2.62718e-06)
(-1.51348 0 -2.45863e-06)
(-1.51307 0 -2.33188e-06)
(-1.51268 0 -2.20573e-06)
(-1.5123 0 -2.08011e-06)
(-1.51195 0 -1.97557e-06)
(-1.51162 0 -1.87144e-06)
(-1.5113 0 -1.76764e-06)
(-1.511 0 -1.68467e-06)
(-1.51072 0 -1.58138e-06)
(-1.51045 0 -1.49889e-06)
(-1.51019 0 -1.43716e-06)
(-1.50995 0 -1.35502e-06)
(-1.50972 0 -1.29357e-06)
(-1.5095 0 -1.23224e-06)
(-1.50929 0 -1.171e-06)
(-1.50909 0 -1.13042e-06)
(-1.5089 0 -1.06933e-06)
(-1.50872 0 -1.02887e-06)
(-1.50854 0 -9.88482e-07)
(-1.50837 0 -9.27587e-07)
(-1.50822 0 -9.07877e-07)
(-1.50806 0 -8.67632e-07)
(-1.50792 0 -8.27398e-07)
(-1.50777 0 -8.07813e-07)
(-1.50764 0 -7.67688e-07)
(-1.50751 0 -7.48144e-07)
(-1.50738 0 -7.28566e-07)
(-1.50726 0 -7.09012e-07)
(-1.50714 0 -6.89493e-07)
(-1.50702 0 -6.69992e-07)
(-1.50691 0 -6.50497e-07)
(-1.5068 0 -6.30994e-07)
(-1.50669 0 -6.32021e-07)
(-1.50659 0 -6.12453e-07)
(-1.50649 0 -5.92733e-07)
(-1.50639 0 -5.72766e-07)
(-1.50629 0 -5.73153e-07)
(-1.50619 0 -5.7329e-07)
(-1.5061 0 -5.52853e-07)
(-1.50601 0 -5.53131e-07)
(-1.50591 0 -5.3292e-07)
(-1.50583 0 -5.13165e-07)
(-1.50574 0 -5.34562e-07)
(-1.50565 0 -5.35433e-07)
(-1.50556 0 -5.15909e-07)
(-1.50548 0 -4.96383e-07)
(-1.5054 0 -4.97295e-07)
(-1.50531 0 -5.18662e-07)
(-1.50523 0 -4.98817e-07)
(-1.50515 0 -4.9963e-07)
(-1.50506 0 -5.21148e-07)
(-1.50498 0 -5.01548e-07)
(-1.5049 0 -5.02476e-07)
(-1.50481 0 -5.03376e-07)
(-1.50473 0 -5.04257e-07)
(-1.50465 0 -5.25681e-07)
(-1.50456 0 -5.05939e-07)
(-1.50448 0 -5.06742e-07)
(-1.5044 0 -5.28058e-07)
(-1.50431 0 -5.28811e-07)
(-1.50422 0 -5.29682e-07)
(-1.50414 0 -5.30586e-07)
(-1.50405 0 -5.31467e-07)
(-1.50397 0 -5.32312e-07)
(-1.50388 0 -5.53705e-07)
(-1.50379 0 -5.54554e-07)
(-1.5037 0 -5.55365e-07)
(-1.50361 0 -5.76799e-07)
(-1.50352 0 -5.77727e-07)
(-1.50342 0 -5.78698e-07)
(-1.50333 0 -5.79653e-07)
(-1.50324 0 -6.0118e-07)
(-1.50314 0 -6.02232e-07)
(-1.50304 0 -6.03352e-07)
(-1.50294 0 -6.24994e-07)
(-1.50284 0 -6.46628e-07)
(-1.50274 0 -6.47669e-07)
(-1.50264 0 -6.48737e-07)
(-1.50253 0 -6.70423e-07)
(-1.50242 0 -6.71548e-07)
(-1.50231 0 -6.72692e-07)
(-1.50221 0 -6.94466e-07)
(-1.50209 0 -7.16268e-07)
(-1.50198 0 -7.17595e-07)
(-1.50186 0 -7.39562e-07)
(-1.50174 0 -7.61514e-07)
(-1.50162 0 -7.62919e-07)
(-1.5015 0 -7.64351e-07)
(-1.50138 0 -7.86373e-07)
(-1.50125 0 -8.08425e-07)
(-1.50112 0 -8.30507e-07)
(-1.50098 0 -8.5265e-07)
(-1.50085 0 -8.54252e-07)
(-1.50071 0 -8.76463e-07)
(-1.50057 0 -8.98723e-07)
(-1.50042 0 -9.00462e-07)
(-1.50028 0 -9.22848e-07)
(-1.50013 0 -9.45289e-07)
(-1.49998 0 -9.67774e-07)
(-1.49982 0 -9.9031e-07)
(-1.49967 0 -1.01289e-06)
(-1.4995 0 -1.03549e-06)
(-1.49934 0 -1.05815e-06)
(-1.49916 0 -1.08086e-06)
(-1.49899 0 -1.083e-06)
(-1.49882 0 -1.12631e-06)
(-1.49863 0 -1.14909e-06)
(-1.49846 0 -1.17192e-06)
(-1.49826 0 -1.21537e-06)
(-1.49807 0 -1.21772e-06)
(-1.49788 0 -1.24073e-06)
(-1.49768 0 -1.28438e-06)
(-1.49747 0 -1.30754e-06)
(-1.49726 0 -1.33078e-06)
(-1.49705 0 -1.3747e-06)
(-1.49682 0 -1.39812e-06)
(-1.4966 0 -1.42161e-06)
(-1.49637 0 -1.46578e-06)
(-1.49614 0 -1.48943e-06)
(-1.4959 0 -1.53372e-06)
(-1.49565 0 -1.57806e-06)
(-1.4954 0 -1.60189e-06)
(-1.49514 0 -1.62584e-06)
(-1.49488 0 -1.67049e-06)
(-1.49461 0 -1.71523e-06)
(-1.49434 0 -1.76006e-06)
(-1.49405 0 -1.80498e-06)
(-1.49377 0 -1.82944e-06)
(-1.49347 0 -1.87457e-06)
(-1.49317 0 -1.91982e-06)
(-1.49287 0 -1.98575e-06)
(-1.49254 0 -2.03125e-06)
(-1.49222 0 -2.05629e-06)
(-1.49189 0 -2.12259e-06)
(-1.49155 0 -2.16845e-06)
(-1.49121 0 -2.21444e-06)
(-1.49085 0 -2.28114e-06)
(-1.49048 0 -2.32741e-06)
(-1.49011 0 -2.39441e-06)
(-1.48972 0 -2.441e-06)
(-1.48934 0 -2.50833e-06)
(-1.48893 0 -2.57582e-06)
(-1.48852 0 -2.62291e-06)
(-1.4881 0 -2.69074e-06)
(-1.48767 0 -2.75874e-06)
(-1.48723 0 -2.8475e-06)
(-1.48677 0 -2.91588e-06)
(-1.4863 0 -2.98446e-06)
(-1.48582 0 -3.05325e-06)
(-1.48534 0 -3.12227e-06)
(-1.48484 0 -3.21208e-06)
(-1.48432 0 -3.30212e-06)
(-1.48379 0 -3.3924e-06)
(-1.48325 0 -3.48292e-06)
(-1.48269 0 -3.57368e-06)
(-1.48212 0 -3.64413e-06)
(-1.48154 0 -3.73541e-06)
(-1.48094 0 -3.86811e-06)
(-1.48031 0 -3.95994e-06)
(-1.47968 0 -4.05206e-06)
(-1.47903 0 -4.16505e-06)
(-1.47837 0 -4.27834e-06)
(-1.47768 0 -4.39195e-06)
(-1.47698 0 -4.50588e-06)
(-1.47626 0 -4.6407e-06)
(-1.47551 0 -4.7553e-06)
(-1.47475 0 -4.87026e-06)
(-1.47397 0 -5.02673e-06)
(-1.47316 0 -5.163e-06)
(-1.47234 0 -5.27908e-06)
(-1.4715 0 -5.4367e-06)
(-1.47062 0 -5.59474e-06)
(-1.46973 0 -5.75319e-06)
(-1.46881 0 -5.91207e-06)
(-1.46786 0 -6.07139e-06)
(-1.46689 0 -6.23117e-06)
(-1.46589 0 -6.41198e-06)
(-1.46486 0 -6.59327e-06)
(-1.46381 0 -6.77503e-06)
(-1.46272 0 -6.97787e-06)
(-1.46161 0 -7.16063e-06)
(-1.46046 0 -7.36448e-06)
(-1.45928 0 -7.56881e-06)
(-1.45807 0 -7.77374e-06)
(-1.45683 0 -7.99953e-06)
(-1.45555 0 -8.24694e-06)
(-1.45422 0 -8.47288e-06)
(-1.45287 0 -8.70268e-06)
(-1.45147 0 -8.94491e-06)
(-1.45004 0 -9.20851e-06)
(-1.44857 0 -9.44089e-06)
(-1.44705 0 -9.75918e-06)
(-1.44551 0 -9.8903e-06)
(-1.44388 0 -1.04808e-05)
(-1.44232 0 -9.98313e-06)
(-1.44043 0 -1.21896e-05)
(-1.43915 0 -4.6119e-06)
(-1.43779 0 -2.08154e-05)
(-1.43491 0 -3.04904e-05)
(-1.43264 1.14509e-23 -1.47055e-05)
(-1.43115 0 -1.89568e-05)
(-1.42933 0 -2.18099e-05)
(-1.42733 0 -2.22301e-05)
(-1.42529 0 -2.28619e-05)
(-1.42317 1.27589e-23 -2.36975e-05)
(-1.42099 0 -2.44633e-05)
(-1.41875 -1.33433e-23 -2.52443e-05)
(-1.41643 0 -2.60379e-05)
(-1.41405 1.39655e-23 -2.68729e-05)
(-1.41161 1.42918e-23 -2.77067e-05)
(-1.40908 0 -2.86487e-05)
(-1.40649 1.49758e-23 -2.95258e-05)
(-1.40383 0 -3.07189e-05)
(-1.40106 0 -3.18272e-05)
(-1.39819 0 -3.26942e-05)
(-1.39526 0 -3.3695e-05)
(-1.39224 0 -3.48073e-05)
(-1.38914 -3.46093e-23 -3.59101e-05)
(-1.38593 3.54756e-23 -3.7085e-05)
(-1.38264 0 -3.82494e-05)
(-1.37925 -7.45867e-23 -3.94999e-05)
(-1.37575 0 -4.07427e-05)
(-1.37215 0 -4.20046e-05)
(-1.36845 0 -4.33251e-05)
(-1.36463 0 -4.47122e-05)
(-1.3607 8.47389e-23 -4.60949e-05)
(-1.35665 -8.69672e-23 -4.75771e-05)
(-1.35247 -8.92669e-23 -4.90519e-05)
(-1.34818 0 -5.06048e-05)
(-1.34375 0 -5.2206e-05)
(-1.33918 -9.66122e-23 -5.38624e-05)
(-1.33448 -3.06836e-27 -5.55894e-05)
(-1.32963 -1.01902e-22 -5.7376e-05)
(-1.32462 -1.04678e-22 -5.92268e-05)
(-1.31946 1.07536e-22 -6.11295e-05)
(-1.31415 3.32743e-27 -6.31218e-05)
(-1.30864 0 -6.52749e-05)
(-1.30298 0 -6.72707e-05)
(-1.29713 0 -6.96289e-05)
(-1.29108 0 -7.19779e-05)
(-1.28484 0 -7.42895e-05)
(-1.2784 0 -7.54474e-05)
(-1.27174 -6.69664e-23 -7.60965e-05)
(-1.26485 0 -7.83922e-05)
(-1.25775 7.08143e-23 -8.10249e-05)
(-1.25037 7.28285e-23 -8.42006e-05)
(-1.24276 7.49112e-23 -8.70865e-05)
(-1.23483 0 -9.14011e-05)
(-1.22649 -7.92723e-23 -9.52461e-05)
(-1.21782 -4.07781e-23 -9.921e-05)
(-1.20877 0 -0.000102826)
(-1.19941 0 -0.000106387)
(-1.18974 0 -0.000110189)
(-1.17974 0 -0.000114156)
(-1.1694 0 -0.0001183)
(-1.15868 0 -0.00012262)
(-1.14759 0 -0.0001271)
(-1.1361 0 -0.000131802)
(-1.12419 -5.29078e-23 -0.000136674)
(-1.11187 0 -0.000141766)
(-1.09908 -5.61217e-23 -0.000147117)
(-1.08582 5.781e-23 -0.000152685)
(-1.07207 -5.95552e-23 -0.000158504)
(-1.0578 0 -0.000164583)
(-1.04299 -3.91691e-27 -0.000171186)
(-1.02752 6.51586e-23 -0.000178262)
(-1.01141 6.71479e-23 -0.000185505)
(-0.994634 2.08128e-27 -0.000192925)
(-0.977195 0 -0.000200671)
(-0.959039 -4.55827e-27 -0.000208845)
(-0.940143 4.56077e-27 -0.000217406)
(-0.920459 -4.84719e-27 -0.000226429)
(-0.89994 -1.49337e-28 -0.000235969)
(-0.878533 2.42387e-27 -0.000245984)
(-0.856197 2.58002e-27 -0.000256525)
(-0.832863 -2.74449e-27 -0.000267695)
(-0.808476 2.74627e-27 -0.000279495)
(-0.782957 -2.92266e-27 -0.000291967)
(-0.756245 2.92469e-27 -0.00030515)
(-0.728254 1.0045e-22 -0.000319088)
(-0.698898 0 -0.000333859)
(-0.668083 -3.31914e-27 -0.000349486)
(-0.63571 -1.10545e-22 -0.000365988)
(-0.601673 -1.76965e-27 -0.000383376)
(-0.56586 8.57365e-28 -0.000401654)
(-0.528158 -2.91506e-29 -0.000420743)
(-0.488455 -3.00802e-29 -0.000440521)
(-0.446648 -1.03763e-27 -0.000460735)
(-0.40265 -1.34135e-22 -0.000480985)
(-0.356425 2.08117e-27 -0.000500498)
(-0.307977 0 -0.000518319)
(-0.257484 0 -0.000532289)
(-0.205169 -1.17814e-27 -0.000540484)
(-0.151844 1.17952e-27 -0.000536534)
(-0.0979784 -6.24082e-28 -0.000536068)
(-0.0463307 6.24806e-28 -0.000628736)
(0.00400861 -6.56251e-28 -0.000640906)
(0.0423115 -1.73907e-22 -0.000487938)
(0.106442 -1.45071e-18 0.00259214)
(0.0353238 -1.18716e-17 0.00337302)
(-0.0624306 -5.97502e-18 -0.0131752)
(-0.108855 3.00927e-36 -0.0291942)
(-0.195013 6.05089e-18 -0.0617181)
(-0.291512 -1.20868e-17 -0.107052)
(-0.402836 0 -0.167188)
(-0.527939 -5.83798e-34 -0.242197)
(-0.667719 -1.15284e-17 -0.331716)
(-0.817118 0 -0.431797)
(-0.974565 0 -0.54062)
(-1.14598 8.21682e-34 -0.659435)
(-1.32937 -2.98017e-21 -0.783173)
(-1.51142 -3.44638e-21 -0.901285)
(-1.69446 -6.87886e-18 -1.01504)
(-1.89064 0 -1.12837)
(-2.08703 -4.14053e-18 -1.22861)
(-2.25591 7.52316e-37 -1.30064)
(-2.43212 -1.01353e-18 -1.36969)
(-2.66342 4.98903e-21 -1.4473)
(-2.77845 4.06981e-21 -1.42496)
(-2.6567 2.93874e-39 -1.2944)
(-2.64611 0 -1.24869)
(-2.76904 -3.00927e-36 -1.25311)
(-2.825 -1.4262e-17 -1.23402)
(-2.84981 -8.09734e-18 -1.20517)
(-2.90868 8.9861e-18 -1.19139)
(-2.92349 -7.52316e-37 -1.15607)
(-2.88045 1.06323e-17 -1.11294)
(-2.99116 1.50463e-36 -1.1409)
(-3.20236 -7.34261e-34 -1.19398)
(-3.34264 2.69192e-17 -1.2105)
(-3.36746 -2.92355e-17 -1.17331)
(-3.31684 -7.72533e-18 -1.11123)
(-3.29411 8.0224e-18 -1.06532)
(-3.33272 0 -1.04194)
(-3.37666 0 -1.01916)
(-3.38765 1.50463e-36 -0.986356)
(-3.38198 9.23318e-18 -0.950131)
(-3.382 -9.40395e-38 -0.917412)
(-3.38884 9.67509e-18 -0.887947)
(-3.39142 -4.70198e-38 -0.858326)
(-3.3845 1.00589e-17 -0.827659)
(-3.37584 -2.04266e-17 -0.79872)
(-3.37427 -3.00927e-36 -0.773502)
(-3.3784 1.04905e-17 -0.750993)
(-3.38258 1.0625e-17 -0.729513)
(-3.38573 1.0753e-17 -0.708721)
(-3.38826 -2.17521e-17 -0.68852)
(-3.38995 0 -0.668891)
(-3.39146 1.29985e-23 -0.649995)
(-3.39397 -2.24248e-17 -0.632029)
(-3.39728 1.13174e-17 -0.614766)
(-3.39954 0 -0.59775)
(-3.40018 -1.15178e-17 -0.581003)
(-3.4016 -3.19734e-34 -0.565152)
(-3.40604 0 -0.550535)
(-3.41376 1.24132e-35 -0.53706)
(-3.42647 5.94532e-18 -0.524838)
(-3.44243 -5.99799e-18 -0.51278)
(-3.45253 -3.76158e-37 -0.498896)
(-3.45245 7.72583e-34 -0.48317)
(-3.45228 7.52316e-37 -0.468195)
(-3.46175 -6.19599e-18 -0.455105)
(-3.47412 3.76158e-37 -0.441854)
(-3.47769 0 -0.426649)
(-3.47383 3.76158e-37 -0.410641)
(-3.47483 -6.38091e-18 -0.396113)
(-3.48563 -6.42212e-18 -0.38298)
(-3.49458 0 -0.368627)
(-3.49078 -6.51387e-18 -0.352112)
(-3.48283 1.30983e-17 -0.335842)
(-3.48512 6.58099e-18 -0.32161)
(-3.49531 -6.61839e-18 -0.307922)
(-3.49818 1.38802e-34 -0.292366)
(-3.48849 -3.76158e-37 -0.275356)
(-3.48129 3.36055e-18 -0.259775)
(-3.48992 -9.29111e-35 -0.246262)
(-3.50075 6.7856e-18 -0.231494)
(-3.49179 1.1849e-35 -0.213513)
(-3.4696 -9.40395e-38 -0.195268)
(-3.46238 3.42901e-18 -0.180276)
(-3.47801 0 -0.16713)
(-3.48824 -6.91497e-18 -0.151141)
(-3.47156 1.38426e-34 -0.13177)
(-3.44523 1.10803e-23 -0.112735)
(-3.42966 9.46978e-35 -0.0955466)
(-3.42251 1.74342e-18 -0.079159)
(-3.41535 -5.187e-24 -0.0626362)
(-3.40662 -8.74014e-19 -0.045851)
(-3.39663 0 -0.0287079)
(-3.38476 0 -0.0111628)
(-3.36934 7.34684e-40 0.00695958)
(-3.34743 8.76158e-19 0.0255507)
(-3.3232 2.35099e-38 0.043662)
(-3.30734 -1.74784e-18 0.0608942)
(-3.29916 -1.74604e-18 0.0786373)
(-3.28013 1.74512e-18 0.0983894)
(-3.23976 0 0.118979)
(-3.19775 0 0.138016)
(-3.17569 -1.1117e-34 0.156141)
(-3.15824 9.40395e-38 0.176102)
(-3.11679 3.42856e-18 0.198077)
(-3.05051 -3.40731e-18 0.219845)
(-2.97935 3.70516e-34 0.24019)
(-2.91125 6.68042e-18 0.259771)
(-2.83759 -6.59921e-18 0.278858)
(-2.75347 -3.76158e-37 0.297034)
(-2.65784 1.88455e-34 0.314022)
(-2.5528 6.27137e-18 0.329675)
(-2.42555 6.13228e-18 0.344313)
(-2.2393 -6.44735e-34 0.354258)
(-1.97755 -3.58357e-22 0.351532)
(-1.68758 -1.09323e-17 0.33448)
(-1.3968 -1.88079e-37 0.308574)
(-0.958579 -9.62965e-18 0.259699)
(-0.0166717 3.00927e-36 0.0536205)
(0.610645 1.01412e-33 -0.182432)
(0.492452 1.44924e-17 -0.224305)
(0.34614 -6.01853e-36 -0.204651)
(0.229799 -4.08766e-34 -0.157385)
(0.186351 0 -0.139758)
(0.149855 0 -0.119722)
(0.131147 0 -0.108248)
(0.12002 1.05926e-33 -0.100538)
(0.107659 -1.3852e-17 -0.0901856)
(0.100494 1.41059e-37 -0.0832702)
(0.102697 -1.38412e-17 -0.084364)
(0.103401 1.55579e-33 -0.0843276)
(0.103144 1.07975e-24 -0.0826134)
(0.104436 1.38355e-17 -0.0811654)
(0.109099 -1.88079e-37 -0.0818814)
(0.116749 1.38498e-17 -0.0846186)
(0.124717 1.38574e-17 -0.0871405)
(0.132811 6.01853e-36 -0.0889542)
(0.141961 0 -0.0906582)
(0.152296 -3.00927e-36 -0.0923977)
(0.163503 -1.38992e-17 -0.0939281)
(0.175409 1.39112e-17 -0.0951168)
(0.187822 2.78468e-17 -0.0958276)
(0.200668 -1.20371e-35 -0.0960189)
(0.214198 3.32652e-23 -0.0958321)
(0.228613 -3.25617e-23 -0.0954522)
(0.244497 -1.39785e-17 -0.0951707)
(0.261895 1.39926e-17 -0.0951154)
(0.27902 9.0278e-36 -0.0945729)
(0.295949 2.58797e-34 -0.093434)
(0.314833 -1.40294e-17 -0.0925854)
(0.335118 0 -0.092105)
(0.354727 1.49182e-24 -0.0912434)
(0.374205 0 -0.090027)
(0.39446 -7.02699e-18 -0.0888741)
(0.41575 -7.0274e-18 -0.0879696)
(0.438186 7.02586e-18 -0.0874753)
(0.460313 -1.04202e-23 -0.0870788)
(0.481491 6.88428e-35 -0.0863907)
(0.502367 0 -0.0855448)
(0.523273 0 -0.0846578)
(0.544844 3.49086e-18 -0.0839448)
(0.566579 1.07019e-23 -0.0834186)
(0.58784 1.20837e-23 -0.0828285)
(0.607791 -7.17465e-43 -0.0819104)
(0.625824 7.52316e-37 -0.0802545)
(0.643934 -6.86438e-18 -0.0781404)
(0.662163 3.41549e-18 -0.075846)
(0.677587 3.76158e-37 -0.0726292)
(0.690217 -3.37672e-18 -0.0679337)
(0.701781 -1.88079e-37 -0.0620427)
(0.712354 0 -0.0550729)
(0.721858 0 -0.0470489)
(0.731676 -1.64569e-18 -0.0382656)
(0.743146 0 -0.0293845)
(0.755521 -5.87747e-39 -0.0207475)
(0.770989 4.03156e-19 -0.0129323)
(0.796757 -2.00161e-19 -0.00801266)
(0.824419 0 -0.00745052)
(0.840098 0 -0.00778451)
(0.85272 0 -0.0077782)
(0.87012 -1.55283e-35 -0.0100091)
(0.859882 -3.75577e-19 -0.0104745)
(0.847784 -9.28787e-20 -0.00233725)
(0.862774 0 -9.89214e-05)
(0.868141 0 -6.88589e-05)
(0.870107 0 -2.66428e-05)
(0.868226 0 -2.12339e-05)
(0.865041 0 -4.52429e-06)
(0.859704 0 2.21536e-06)
(0.853042 0 1.32815e-05)
(0.844737 0 2.01047e-05)
(0.835098 0 2.78159e-05)
(0.82404 0 3.41001e-05)
(0.811671 0 4.07466e-05)
(0.797999 0 4.66727e-05)
(0.783094 0 5.25276e-05)
(0.766986 0 5.79265e-05)
(0.749738 0 6.30576e-05)
(0.731395 0 6.78326e-05)
(0.712013 0 7.23122e-05)
(0.691636 0 7.65171e-05)
(0.670315 0 8.04513e-05)
(0.648095 0 8.4141e-05)
(0.625026 0 8.75783e-05)
(0.601155 0 9.07694e-05)
(0.576537 0 9.37059e-05)
(0.551225 0 9.63863e-05)
(0.525272 0 9.8825e-05)
(0.498734 0 0.000101006)
(0.471665 0 0.000102966)
(0.444121 0 0.000104677)
(0.416153 0 0.000106197)
(0.387816 0 0.000107478)
(0.359159 0 0.000108596)
(0.330236 0 0.000109483)
(0.301094 0 0.000110234)
(0.271783 0 0.000110754)
(0.242354 0 0.000111155)
(0.212853 0 0.00011134)
(0.183325 0 0.000111424)
(0.153815 0 0.000111311)
(0.124364 0 0.000111127)
(0.0950115 0 0.000110753)
(0.0657943 0 0.000110317)
(0.0367486 0 0.000109796)
(0.00790756 0 0.000147649)
(-0.020699 0 0.000148602)
(-0.0490419 0 0.000108386)
(-0.0770927 0 8.20702e-05)
(-0.10483 0 8.70527e-05)
(-0.132229 0 8.99395e-05)
(-0.159273 0 9.17101e-05)
(-0.185943 0 9.27048e-05)
(-0.212227 0 9.3294e-05)
(-0.238107 0 9.34654e-05)
(-0.263572 0 9.34392e-05)
(-0.288606 0 9.31306e-05)
(-0.313199 0 9.27168e-05)
(-0.337339 0 9.20869e-05)
(-0.361018 0 9.14084e-05)
(-0.38423 0 9.05581e-05)
(-0.406968 0 8.96889e-05)
(-0.429233 0 8.86916e-05)
(-0.451022 0 8.76979e-05)
(-0.472337 0 8.65958e-05)
(-0.49318 0 8.55188e-05)
(-0.513557 0 8.43534e-05)
(-0.533471 0 8.32175e-05)
(-0.552927 0 8.20024e-05)
(-0.571931 0 8.08181e-05)
(-0.590489 0 7.95647e-05)
(-0.608606 0 7.83372e-05)
(-0.626288 0 7.77949e-05)
(-0.643543 0 7.81572e-05)
(-0.660376 0 7.75675e-05)
(-0.676794 0 7.6087e-05)
(-0.692807 0 7.46467e-05)
(-0.708423 0 7.32579e-05)
(-0.72365 0 7.18474e-05)
(-0.738499 0 7.04925e-05)
(-0.752978 0 6.91118e-05)
(-0.767095 0 6.77758e-05)
(-0.780858 0 6.64116e-05)
(-0.794275 0 6.51111e-05)
(-0.807361 0 6.37365e-05)
(-0.820099 0 6.23809e-05)
(-0.832514 0 6.09671e-05)
(-0.84459 0 5.9531e-05)
(-0.856335 0 5.79699e-05)
(-0.867732 0 5.63353e-05)
(-0.878767 0 5.44629e-05)
(-0.889433 0 5.24863e-05)
(-0.899674 0 4.99395e-05)
(-0.909468 0 4.72634e-05)
(-0.918683 0 4.34001e-05)
(-0.927291 0 3.97557e-05)
(-0.934971 2.44513e-23 3.20801e-05)
(-0.941903 0 2.59895e-05)
(-0.94678 0 7.34479e-06)
(-0.950655 -9.93189e-23 -3.74392e-06)
(-0.948776 0 -5.82613e-05)
(-0.947523 -9.85235e-23 -6.60675e-05)
(-0.920786 -9.81106e-23 -0.000295587)
(-0.918526 0 -0.000402383)
(-0.689645 0 -0.00184885)
)
;
    }
    sides
    {
        type            empty;
    }
    outlet
    {
        type            calculated;
        value           uniform (0 0 0);
    }
    top
    {
        type            symmetry;
    }
}


// ************************************************************************* //
